LAMMPS data file via write_data, version 3 Mar 2020, timestep = 43

8 atoms
4 atom types

1.1482105353870480e-03 2.4588517894646129e+00 xlo xhi
9.9437949239355246e-04 2.1294281135076076e+00 ylo yhi
0.0000000000000000e+00 1.8300000000000000e+02 zlo zhi
1.2288517894646134e+00 0.0000000000000000e+00 0.0000000000000000e+00 xy xz yz

Masses

1 12.01
2 12.01
3 12.01
4 12.01

Atoms # atomic

1 1 1.2299999999999989e+00 2.1294281125357437e+00 1.4936653627313143e+01 -1 0 0
2 1 2.4588517894646107e+00 1.4199502012491962e+00 1.4939661100484880e+01 0 1 0
3 2 2.4588517894646120e+00 9.9437996020251915e-04 1.8323649127391842e+01 -1 1 0
4 2 1.2299999999999995e+00 7.1047229125579880e-01 1.8320641654220108e+01 -1 0 0
5 3 1.2299999999999989e+00 2.1294281125357437e+00 2.1710644627470543e+01 -1 0 0
6 3 2.4588517894646107e+00 1.4199502012491962e+00 2.1701622207955335e+01 0 1 0
7 4 2.4588517894646120e+00 9.9437996020251915e-04 2.509764012754924e+01 -1 1 0
8 4 1.2299999999999995e+00 7.1047229125579880e-01 2.5082602761690563e+01 -1 0 0

Velocities

1 -6.8499872961155052e-14 -1.3692375387574384e-10 7.1217393588599448e-10
2 6.8143102789482373e-14 1.5226656591598461e-10 -2.7560615568901185e-09
3 5.5165587794888540e-14 5.3985513800880059e-10 -7.1213121335475341e-10
4 -5.4050681008411407e-14 -5.5519985444919602e-10 2.7560188354041026e-09
5 -6.8499872961155052e-14 -1.3692375387574384e-10 7.1217393588599448e-10
6 6.8143102789482373e-14 1.5226656591598461e-10 -2.7560615568901185e-09
7 5.5165587794888540e-14 5.3985513800880059e-10 -7.1213121335475341e-10
8 -5.4050681008411407e-14 -5.5519985444919602e-10 2.7560188354041026e-09
