LAMMPS data file via write_data, version 18 Jun 2019, timestep = 10568

10444 atoms
1 atom types

-7.5280618428485557e-01 1.2491983118428419e+02 xlo xhi
-6.5194927994502738e-01 1.0818374727994447e+02 ylo yhi
0.0000000000000000e+00 1.8349999900000000e+02 zlo zhi
6.2836319190347353e+01 0.0000000000000000e+00 0.0000000000000000e+00 xy xz yz

Masses

1 12.011

Atoms # molecular

1 1 1 1.2350087832141855e+02 -6.2476382559603438e-01 1.4864074397116578e+01 -1 1 0
2 1 1 -1.9066227207099384e-02 5.6461931114949182e-01 1.4864074074094480e+01 0 1 0
3 1 1 1.8413833517335860e+02 1.0456240226103171e+02 1.4865781843562981e+01 -1 0 0
4 1 1 1.8629090146524058e+02 1.0575194603161110e+02 1.4864463578043770e+01 -1 0 0
5 1 1 1.8560420828046620e+02 1.0699480390270884e+02 1.4864330640225221e+01 -1 0 0
6 1 1 6.2770942557692237e+01 1.0694133763742974e+02 1.4864074042887234e+01 0 0 0
7 1 1 -7.5206730217457007e-01 -6.5150114349617017e-01 1.4863950746404894e+01 0 1 0
8 1 1 6.4923635532067337e+01 1.0813073743897601e+02 1.4864462819096127e+01 0 0 0
9 1 1 1.4006245166559759e+00 5.3789648346354169e-01 1.4864330652183058e+01 0 1 0
10 1 1 4.2399360561923345e+00 4.8461609584299647e-01 1.4865778301766344e+01 0 1 0
11 1 1 1.8194077062764754e+02 1.0091292272063166e+02 1.4871233350909595e+01 -1 0 0
12 1 1 1.8409251880770356e+02 1.0210322169273124e+02 1.4867802478047100e+01 -1 0 0
13 1 1 1.8340571784977783e+02 1.0334604460037323e+02 1.4867106946471806e+01 -1 0 0
14 1 1 6.0572156605685969e+01 1.0329293506473807e+02 1.4865779496772225e+01 0 0 0
15 1 1 1.8555801656323959e+02 1.0453575678076388e+02 1.4865170106236603e+01 -1 0 0
16 1 1 6.2724716186443523e+01 1.0448238965829347e+02 1.4864879174369305e+01 0 0 0
17 1 1 6.2037954536353489e+01 1.0572521080227379e+02 1.4864331016467354e+01 0 0 0
18 1 1 6.4877394442496694e+01 1.0567179861295631e+02 1.4864879231538760e+01 0 0 0
19 1 1 6.4190635635084845e+01 1.0691461476064350e+02 1.4864329921413173e+01 0 0 0
20 1 1 6.7030093793238748e+01 1.0686133222308767e+02 1.4865780368685185e+01 0 0 0
21 1 1 6.6343328769376541e+01 1.0810413511641062e+02 1.4865168946093155e+01 0 0 0
22 1 1 6.9182714823417015e+01 1.0805124435090372e+02 1.4867800577961937e+01 0 0 0
23 1 1 5.6596247356789302e+00 4.5832956094548682e-01 1.4867099112258687e+01 0 1 0
24 1 1 8.4987850597898316e+00 4.0621720045807941e-01 1.4871198832990272e+01 0 1 0
25 1 1 1.7974669565845494e+02 9.7261137375346877e+01 1.4881084904599815e+01 -1 0 0
26 1 1 1.8189654313436927e+02 9.8453084610625865e+01 1.4875459475300588e+01 -1 0 0
27 1 1 1.8120941165555564e+02 9.9695805732733518e+01 1.4874068801625379e+01 -1 0 0
28 1 1 5.8374836719241493e+01 9.9643863053794703e+01 1.4871201046293212e+01 0 0 0
29 1 1 1.8336040163590027e+02 1.0088657730379107e+02 1.4869847342043210e+01 -1 0 0
30 1 1 6.0526570479170807e+01 1.0083388162796371e+02 1.4868352096639519e+01 0 0 0
31 1 1 5.9839547472294385e+01 1.0207659186174490e+02 1.4867100699074085e+01 0 0 0
32 1 1 6.2678828590569054e+01 1.0202349457451372e+02 1.4866767167544561e+01 0 0 0
33 1 1 6.1991843424436034e+01 1.0326620329948753e+02 1.4865626142187748e+01 0 0 0
34 1 1 6.4831379735588584e+01 1.0321297012528213e+02 1.4866259981626627e+01 0 0 0
35 1 1 6.4144413032002845e+01 1.0445567271178169e+02 1.4865168845107851e+01 0 0 0
36 1 1 6.6984066883126189e+01 1.0440252146321393e+02 1.4866762986391738e+01 0 0 0
37 1 1 6.6297096615711723e+01 1.0564520582783592e+02 1.4865624431254311e+01 0 0 0
38 1 1 6.9136783891478302e+01 1.0559239329411449e+02 1.4868364134781761e+01 0 0 0
39 1 1 6.8449799087932192e+01 1.0683504582447314e+02 1.4867105120382893e+01 0 0 0
40 1 1 7.1289418048119103e+01 1.0678292521415621e+02 1.4871230979621613e+01 0 0 0
41 1 1 7.0602418356128567e+01 1.0802553444671875e+02 1.4869845145802820e+01 0 0 0
42 1 1 7.3441814094340813e+01 1.0797454208245146e+02 1.4875456920563222e+01 0 0 0
43 1 1 9.9184776930456913e+00 3.8140007928131647e-01 1.4874006728573297e+01 0 1 0
44 1 1 1.2757457856262175e+01 3.3199907091061076e-01 1.4880936283659235e+01 0 1 0
45 1 1 1.7755836532615629e+02 9.3605697102649671e+01 1.4893679322347010e+01 -1 0 0
46 1 1 1.7970535443463686e+02 9.4800111496220993e+01 1.4886914130245762e+01 -1 0 0
47 1 1 1.7901762613806682e+02 9.6042654522682341e+01 1.4885111028360576e+01 -1 0 0
48 1 1 5.6181225642545265e+01 9.5992853226785428e+01 1.4880938819753457e+01 0 0 0
49 1 1 1.8116622319717757e+02 9.7235378254538844e+01 1.4878954017375206e+01 -1 0 0
50 1 1 5.8331062517641215e+01 9.7184276658043018e+01 1.4876061358618559e+01 0 0 0
51 1 1 5.7643498182579869e+01 9.8426781705245489e+01 1.4874009141080405e+01 0 0 0
52 1 1 6.0481976495291192e+01 9.8374763099020029e+01 1.4872439703616605e+01 0 0 0
53 1 1 5.9794480632989746e+01 9.9617254162438357e+01 1.4870432015387445e+01 0 0 0
54 1 1 6.2633687778116965e+01 9.9564672760434547e+01 1.4870080631742235e+01 0 0 0
55 1 1 6.1946250454298081e+01 1.0080715604579275e+02 1.4868181034583749e+01 0 0 0
56 1 1 6.4785929167169314e+01 1.0075431270128892e+02 1.4868912728587784e+01 0 0 0
57 1 1 6.4098530919152267e+01 1.0199678652504313e+02 1.4867105363711744e+01 0 0 0
58 1 1 6.6938481885777307e+01 1.0194394674163857e+02 1.4868896630676728e+01 0 0 0
59 1 1 6.6251095521293266e+01 1.0318639987459299e+02 1.4867098239599688e+01 0 0 0
60 1 1 6.9091189462882156e+01 1.0313384516872922e+02 1.4870064503996906e+01 0 0 0
61 1 1 6.8403792505559920e+01 1.0437626144644987e+02 1.4868179849333742e+01 0 0 0
62 1 1 7.1243932515711180e+01 1.0432433412808452e+02 1.4872484349245958e+01 0 0 0
63 1 1 7.0556516572670489e+01 1.0556669872333818e+02 1.4870465489951167e+01 0 0 0
64 1 1 7.3396585921921059e+01 1.0551580674881015e+02 1.4876188966666799e+01 0 0 0
65 1 1 7.2709151762944913e+01 1.0675810821465029e+02 1.4874066269156941e+01 0 0 0
66 1 1 7.5548994399555582e+01 1.0670869310279336e+02 1.4881082315277725e+01 0 0 0
67 1 1 7.4861538699530684e+01 1.0795091958367657e+02 1.4878951418456484e+01 0 0 0
68 1 1 7.7700975953851525e+01 1.0790340340725893e+02 1.4886911707847718e+01 0 0 0
69 1 1 1.4177160443484835e+01 3.0984195203538356e-01 1.4884896155390365e+01 0 1 0
70 1 1 1.7016021867416242e+01 2.6457961129551366e-01 1.4893320466550257e+01 0 1 0
71 1 1 1.7537722669676066e+02 8.9945764144094952e+01 1.4906372214651833e+01 -1 0 0
72 1 1 1.7752085473184852e+02 9.1143133507082098e+01 1.4899770994230535e+01 -1 0 0
73 1 1 1.7683230899087152e+02 9.2385435022856441e+01 1.4898022014374151e+01 -1 0 0
74 1 1 5.3993556825501450e+01 9.2338538248049105e+01 1.4893322555438514e+01 0 0 0
75 1 1 1.7897774865660728e+02 9.3580810220830912e+01 1.4891177297642511e+01 -1 0 0
76 1 1 5.6140551138463003e+01 9.3532204381015617e+01 1.4887367782652037e+01 0 0 0
77 1 1 5.5452185780333494e+01 9.4774433243387648e+01 1.4884898616570309e+01 0 0 0
78 1 1 5.8289067515715800e+01 9.4724430825228382e+01 1.4882202157270447e+01 0 0 0
79 1 1 5.7600774114820751e+01 9.5966615954100519e+01 1.4879526191068782e+01 0 0 0
80 1 1 6.0438903159813634e+01 9.5915557337580239e+01 1.4878033419193242e+01 0 0 0
81 1 1 5.9750679626740755e+01 9.7157707571113335e+01 1.4875287186023135e+01 0 0 0
82 1 1 6.2589804659430548e+01 9.7105930081500389e+01 1.4874975539828670e+01 0 0 0
83 1 1 6.1901647332511757e+01 9.8348056251876699e+01 1.4872270826733306e+01 0 0 0
84 1 1 6.4741500603517935e+01 9.8295874170527370e+01 1.4873083379601551e+01 0 0 0
85 1 1 6.4053396997928061e+01 9.9537980480893836e+01 1.4870465404487742e+01 0 0 0
86 1 1 6.6893736920401267e+01 9.9485690733417542e+01 1.4872405652789663e+01 0 0 0
87 1 1 6.6205664406485226e+01 1.0072777130729573e+02 1.4869844547199769e+01 0 0 0
88 1 1 6.9046301609824525e+01 1.0067568677085319e+02 1.4873008374127643e+01 0 0 0
89 1 1 6.8358235482998865e+01 1.0191772845449998e+02 1.4870429885146816e+01 0 0 0
90 1 1 7.1199032651004032e+01 1.0186620253792336e+02 1.4874930831987250e+01 0 0 0
91 1 1 7.0510957637664461e+01 1.0310819061154281e+02 1.4872270015723208e+01 0 0 0
92 1 1 7.3351797676518316e+01 1.0305761803052228e+02 1.4878146798419916e+01 0 0 0
93 1 1 7.2663711233130982e+01 1.0429954149209149e+02 1.4875394457122191e+01 0 0 0
94 1 1 7.5504462012184348e+01 1.0425034276496370e+02 1.4882525209205669e+01 0 0 0
95 1 1 7.4816367150752370e+01 1.0549219259186323e+02 1.4879741558586305e+01 0 0 0
96 1 1 7.7656873366703053e+01 1.0544477648046863e+02 1.4887813466064532e+01 0 0 0
97 1 1 7.6968766261567524e+01 1.0668654173272630e+02 1.4885108540748369e+01 0 0 0
98 1 1 7.9808863693675448e+01 1.0664126340218807e+02 1.4893677247311606e+01 0 0 0
99 1 1 7.9120724719907940e+01 1.0788292887841857e+02 1.4891175076017744e+01 0 0 0
100 1 1 8.1960261639809445e+01 1.0784005997013958e+02 1.4899769316179110e+01 0 0 0
101 1 1 1.8435733643598631e+01 2.4590923980396051e-01 1.4897575465265176e+01 0 1 0
102 1 1 2.1274591866952470e+01 2.0562225222470187e-01 1.4905792643830223e+01 0 1 0
103 1 1 1.7320368701377669e+02 8.6281151330045148e+01 1.4917221912872154e+01 -1 0 0
104 1 1 1.7534393113304731e+02 8.7481584111300720e+01 1.4911640334263192e+01 -1 0 0
105 1 1 1.7465443375375034e+02 8.8723596112796699e+01 1.4910256454948785e+01 -1 0 0
106 1 1 5.1813213430778283e+01 8.8679987022073448e+01 1.4905793873193554e+01 0 0 0
107 1 1 1.7679644955834931e+02 8.9921965470182087e+01 1.4903923180772942e+01 -1 0 0
108 1 1 5.3956867133165694e+01 8.9876450199773558e+01 1.4899936584101690e+01 0 0 0
109 1 1 5.3267531992502754e+01 9.1118366926522754e+01 1.4897577288600239e+01 0 0 0
110 1 1 5.6102251768115387e+01 9.1071145467739626e+01 1.4894337107973179e+01 0 0 0
111 1 1 5.5412966653557007e+01 9.2312985503724860e+01 1.4891536939303069e+01 0 0 0
112 1 1 5.8249293731482560e+01 9.2264314216518528e+01 1.4889240382736682e+01 0 0 0
113 1 1 5.7560054046156552e+01 9.3506076356179719e+01 1.4886099983336235e+01 0 0 0
114 1 1 6.0397847043095751e+01 9.3456246380815770e+01 1.4884844567869795e+01 0 0 0
115 1 1 5.9708655569457953e+01 9.4697940702413078e+01 1.4881501671065545e+01 0 0 0
116 1 1 6.2547702327545565e+01 9.4647258168728030e+01 1.4881306425348127e+01 0 0 0
117 1 1 6.1858563452809570e+01 9.5888899626573348e+01 1.4877899628148194e+01 0 0 0
118 1 1 6.4698608204260026e+01 9.5837672404376050e+01 1.4878767200078581e+01 0 0 0
119 1 1 6.4009521866021529e+01 9.7079272528745051e+01 1.4875393620962068e+01 0 0 0
120 1 1 6.6850304046167764e+01 9.7027809038012464e+01 1.4877375082927131e+01 0 0 0
121 1 1 6.6161260265342705e+01 9.8269370870325872e+01 1.4874065749167416e+01 0 0 0
122 1 1 6.9002545047057083e+01 9.8218001799423732e+01 1.4877276396315153e+01 0 0 0
123 1 1 6.8313527464051148e+01 9.9459520493432493e+01 1.4874006916719702e+01 0 0 0
124 1 1 7.1155119856963367e+01 9.9408617001533244e+01 1.4878562234512140e+01 0 0 0
125 1 1 7.0466115184730768e+01 1.0065008292968659e+02 1.4875286702381779e+01 0 0 0
126 1 1 7.3307860173707184e+01 1.0060004272258035e+02 1.4881210239043739e+01 0 0 0
127 1 1 7.2618864432318205e+01 1.0184144813143882e+02 1.4877901400708955e+01 0 0 0
128 1 1 7.5460623700558202e+01 1.0179268008831890e+02 1.4885068393366703e+01 0 0 0
129 1 1 7.4771641593714904e+01 1.0303402061553989e+02 1.4881747362726278e+01 0 0 0
130 1 1 7.7613271416891294e+01 1.0298692195404121e+02 1.4889860119164597e+01 0 0 0
131 1 1 7.6924307574761613e+01 1.0422819153609711e+02 1.4886600106246892e+01 0 0 0
132 1 1 7.9765657222366912e+01 1.0418311231877578e+02 1.4895233727783239e+01 0 0 0
133 1 1 7.9076706679743353e+01 1.0542430118971515e+02 1.4892141032917616e+01 0 0 0
134 1 1 8.1917627436854787e+01 1.0538151685435669e+02 1.4900835295231035e+01 0 0 0
135 1 1 8.1228669819470809e+01 1.0662261112674136e+02 1.4898020217580758e+01 0 0 0
136 1 1 8.4069027921452275e+01 1.0658230821690576e+02 1.4906371026005472e+01 0 0 0
137 1 1 8.3380026767379718e+01 1.0782329062029494e+02 1.4903921808353250e+01 0 0 0
138 1 1 8.6219718233060945e+01 1.0778556332522881e+02 1.4911639553239567e+01 0 0 0
139 1 1 2.2694304767334845e+01 1.9071760555846029e-01 1.4909609443474515e+01 0 1 0
140 1 1 2.5533266299748796e+01 1.5557457166797650e-01 1.4916535526237524e+01 0 1 0
141 1 1 1.7103734308911294e+02 8.2612182580215361e+01 1.4925529550730374e+01 -1 0 0
142 1 1 1.7317450732827558e+02 8.3815500042544031e+01 1.4921243270670358e+01 -1 0 0
143 1 1 1.7248400838495991e+02 8.5057185721219682e+01 1.4920283127954688e+01 -1 0 0
144 1 1 4.9640533826089680e+01 8.5016890520586955e+01 1.4916535946996925e+01 0 0 0
145 1 1 1.7462275643636107e+02 8.6258548618769453e+01 1.4915117121252077e+01 -1 0 0
146 1 1 5.1780821745920782e+01 8.6216342157213049e+01 1.4911540943761908e+01 0 0 0
147 1 1 5.1090449249707270e+01 8.7457931865440912e+01 1.4909610378560117e+01 0 0 0
148 1 1 5.3922823474558548e+01 8.7413907577549992e+01 1.4906442486105750e+01 0 0 0
149 1 1 5.3232465447723889e+01 8.8655398463424447e+01 1.4903978149504502e+01 0 0 0
150 1 1 5.6066580211958858e+01 8.8609709781062605e+01 1.4901439005545525e+01 0 0 0
151 1 1 5.5376222114268501e+01 8.9851084056778078e+01 1.4898463467873757e+01 0 0 0
152 1 1 5.8212071822531286e+01 8.9803934829407751e+01 1.4896710683000220e+01 0 0 0
153 1 1 5.7521711196153127e+01 9.1045188975678997e+01 1.4893299675520391e+01 0 0 0
154 1 1 6.0359209663071134e+01 9.0996819543463189e+01 1.4892409172716119e+01 0 0 0
155 1 1 5.9668853237935245e+01 9.2237963098960890e+01 1.4888684465143932e+01 0 0 0
156 1 1 6.2507836781947290e+01 9.2188639334213406e+01 1.4888678015491578e+01 0 0 0
157 1 1 6.1817496697776683e+01 9.3429689879159667e+01 1.4884781249223265e+01 0 0 0
158 1 1 6.4657737839993260e+01 9.3379697256040259e+01 1.4885687235565820e+01 0 0 0
159 1 1 6.3967428378352515e+01 9.4620673134590348e+01 1.4881743516467642e+01 0 0 0
160 1 1 6.6808666572724661e+01 9.4570314195048837e+01 1.4883651377135219e+01 0 0 0
161 1 1 6.6118395535373494e+01 9.5811228760682724e+01 1.4879739961013064e+01 0 0 0
162 1 1 6.8960372154841835e+01 9.5760835010114491e+01 1.4882803414195916e+01 0 0 0
163 1 1 6.8270138536777665e+01 9.7001694747763253e+01 1.4878952043973953e+01 0 0 0
164 1 1 7.1112613096262493e+01 9.6951644474787372e+01 1.4883324122893050e+01 0 0 0
165 1 1 7.0422414594276219e+01 9.8192449909098187e+01 1.4879526905790547e+01 0 0 0
166 1 1 7.3265177357611663e+01 9.8143151452703265e+01 1.4885263957239493e+01 0 0 0
167 1 1 7.2575015433391698e+01 9.9383900839946634e+01 1.4881505247213299e+01 0 0 0
168 1 1 7.5417892294610269e+01 9.9335762531323979e+01 1.4888506684101682e+01 0 0 0
169 1 1 7.4727775310269649e+01 1.0057645829697255e+02 1.4884788170462935e+01 0 0 0
170 1 1 7.7570610847231663e+01 1.0052987125167394e+02 1.4892776584427772e+01 0 0 0
171 1 1 7.6880550005960032e+01 1.0177051607328885e+02 1.4889134231405476e+01 0 0 0
172 1 1 7.9723195303541772e+01 1.0172582806963275e+02 1.4897695112848028e+01 0 0 0
173 1 1 7.9033195778540545e+01 1.0296641837659341e+02 1.4894199451440972e+01 0 0 0
174 1 1 8.1875508390620240e+01 1.0292390631083352e+02 1.4902869347412640e+01 0 0 0
175 1 1 8.1185563841857501e+01 1.0416443340065452e+02 1.4899611184204815e+01 0 0 0
176 1 1 8.4027410862810939e+01 1.0412429028220986e+02 1.4907973293795479e+01 0 0 0
177 1 1 8.3337500260958365e+01 1.0536474150067579e+02 1.4905042093624408e+01 0 0 0
178 1 1 8.6178765037885597e+01 1.0532707518408758e+02 1.4912791838411676e+01 0 0 0
179 1 1 8.5488852954909873e+01 1.0656743509776659e+02 1.4910255562113381e+01 0 0 0
180 1 1 8.8329445557173216e+01 1.0653227384389778e+02 1.4917221531647378e+01 0 0 0
181 1 1 8.7639485387591506e+01 1.0777252538343357e+02 1.4915116599930395e+01 0 0 0
182 1 1 9.0479352077216419e+01 1.0773982904360166e+02 1.4921243157978836e+01 0 0 0
183 1 1 2.6952970116636674e+01 1.4425716840731917e-01 1.4919575964414344e+01 0 1 0
184 1 1 2.9792095706946402e+01 1.1393475637278516e-01 1.4924881304127988e+01 0 1 0
185 1 1 1.6887738215292606e+02 7.8939440455425697e+01 1.4931494170867674e+01 -1 0 0
186 1 1 1.7101190008140586e+02 8.0145312889005368e+01 1.4928378783031423e+01 -1 0 0
187 1 1 1.7032041183917372e+02 8.1386649625774893e+01 1.4927765929564677e+01 -1 0 0
188 1 1 4.7475058141801789e+01 8.1349455889221559e+01 1.4924881227494941e+01 0 0 0
189 1 1 1.7245628016591237e+02 8.2590776179038826e+01 1.4923881867494428e+01 -1 0 0
190 1 1 4.9612277625716501e+01 8.2551793668908076e+01 1.4921026237965052e+01 0 0 0
191 1 1 4.8920880823450560e+01 8.3793049614146909e+01 1.4919576180169141e+01 0 0 0
192 1 1 5.1751052068627466e+01 8.3752296549957165e+01 1.4916896318486250e+01 0 0 0
193 1 1 5.1059632663547589e+01 8.4993446461116321e+01 1.4914942529294574e+01 0 0 0
194 1 1 5.3891490615162404e+01 8.4950987804791367e+01 1.4912620437704282e+01 0 0 0
195 1 1 5.3200020577682373e+01 8.6191998836764910e+01 1.4910132124621439e+01 0 0 0
196 1 1 5.6033666661182544e+01 8.6147949052575996e+01 1.4908340298630401e+01 0 0 0
197 1 1 5.5342131328618876e+01 8.7388800091297071e+01 1.4905322053144214e+01 0 0 0
198 1 1 5.8177604003035093e+01 8.7343316387374344e+01 1.4904176656078443e+01 0 0 0
199 1 1 5.7486001699193018e+01 8.8584000643842273e+01 1.4900679786967046e+01 0 0 0
200 1 1 6.0323266073166685e+01 8.8537274340140243e+01 1.4900222658023102e+01 0 0 0
201 1 1 5.9631606086193067e+01 8.9777799294112484e+01 1.4896344739975270e+01 0 0 0
202 1 1 6.2470549442124913e+01 8.9730051675685758e+01 1.4896574803898158e+01 0 0 0
203 1 1 6.1778850181835395e+01 9.0970435639285512e+01 1.4892442887287091e+01 0 0 0
204 1 1 6.4619283118249342e+01 9.0921918731488205e+01 1.4893381856016761e+01 0 0 0
205 1 1 6.3927572468571888e+01 9.2162185030563322e+01 1.4889124555827278e+01 0 0 0
206 1 1 6.6769249784667863e+01 9.2113181022643360e+01 1.4890874633265303e+01 0 0 0
207 1 1 6.6077554543473909e+01 9.3353352357968561e+01 1.4886595461059311e+01 0 0 0
208 1 1 6.8920210516180347e+01 9.3304180949540211e+01 1.4889343487939870e+01 0 0 0
209 1 1 6.8228548866737043e+01 9.4544275721178863e+01 1.4885108029502639e+01 0 0 0
210 1 1 7.1071919683335025e+01 9.4495306585708633e+01 1.4889058220301647e+01 0 0 0
211 1 1 7.0380305229774649e+01 9.5735338261859894e+01 1.4884900025518393e+01 0 0 0
212 1 1 7.3224136455495326e+01 9.5686983838330391e+01 1.4890172989584725e+01 0 0 0
213 1 1 7.2532583223235775e+01 9.6926960494403644e+01 1.4886105512489834e+01 0 0 0
214 1 1 7.5376649831110157e+01 9.6879635818950419e+01 1.4892663943368426e+01 0 0 0
215 1 1 7.4685173862458683e+01 9.8119566696413003e+01 1.4888694846476310e+01 0 0 0
216 1 1 7.7529286204198925e+01 9.8073664055180501e+01 1.4896311736328217e+01 0 0 0
217 1 1 7.6837906825086947e+01 9.9313561952367678e+01 1.4892458173929686e+01 0 0 0
218 1 1 7.9681899627486146e+01 9.9269430131101316e+01 1.4900743737196844e+01 0 0 0
219 1 1 7.8990632771153003e+01 1.0050930385156846e+02 1.4897042772978002e+01 0 0 0
220 1 1 8.1834358484309476e+01 1.0046722508590854e+02 1.4905528127302388e+01 0 0 0
221 1 1 8.1143208992666715e+01 1.0170707270333463e+02 1.4902037539017277e+01 0 0 0
222 1 1 8.3986536259700728e+01 1.0166724610335721e+02 1.4910279034338473e+01 0 0 0
223 1 1 8.3295496507595260e+01 1.0290705965359692e+02 1.4907068442772879e+01 0 0 0
224 1 1 8.6138308176587344e+01 1.0286960107891279e+02 1.4914730228134340e+01 0 0 0
225 1 1 8.5447356810427422e+01 1.0410936883458676e+02 1.4911865899533293e+01 0 0 0
226 1 1 8.8289552362944548e+01 1.0407431939193862e+02 1.4918755379166958e+01 0 0 0
227 1 1 8.7598654985270713e+01 1.0531402712072126e+02 1.4916284631220824e+01 0 0 0
228 1 1 9.0440158178847440e+01 1.0528136472532948e+02 1.4922340096675883e+01 0 0 0
229 1 1 8.9749270182606935e+01 1.0652099659775007e+02 1.4920282947721255e+01 0 0 0
230 1 1 9.2590037671381936e+01 1.0649064917022858e+02 1.4925529653619870e+01 0 0 0
231 1 1 9.1899107637401499e+01 1.0773018793793446e+02 1.4923881899656044e+01 0 0 0
232 1 1 9.4739131022490710e+01 1.0770204964334869e+02 1.4928378996690574e+01 0 0 0
233 1 1 3.1211783195174693e+01 1.0577989330489634e-01 1.4927120843799544e+01 0 1 0
234 1 1 3.4051090030094521e+01 7.9719488038929365e-02 1.4930923083367526e+01 0 1 0
235 1 1 3.3359902215448983e+01 1.3190137162822779e+00 1.4930026830981124e+01 0 1 0
236 1 1 3.6198553732359763e+01 1.2948774529227172e+00 1.4933180523433993e+01 0 1 0
237 1 1 1.6672285760841393e+02 7.5263581281695508e+01 1.4935612625476024e+01 -1 0 0
238 1 1 1.6885519064629202e+02 7.6471613278480348e+01 1.4933394343809534e+01 -1 0 0
239 1 1 1.6816277021353463e+02 7.7712598639168419e+01 1.4933061611930349e+01 -1 0 0
240 1 1 4.5315929821355972e+01 7.7678166179934450e+01 1.4930922816306348e+01 0 0 0
241 1 1 1.7029621182294701e+02 7.8919146729116875e+01 1.4930262492468744e+01 -1 0 0
242 1 1 4.7450506406202564e+01 7.8883123229409890e+01 1.4928164268718815e+01 0 0 0
243 1 1 4.6758152133705302e+01 8.0124047859190512e+01 1.4927120675153480e+01 0 0 0
244 1 1 4.9586430132543654e+01 8.0086398903921406e+01 1.4925113240672566e+01 0 0 0
245 1 1 4.8894023059293396e+01 8.1327220009780845e+01 1.4923635445387958e+01 0 0 0
246 1 1 5.1723834280260547e+01 8.1287948822040590e+01 1.4921810691430270e+01 0 0 0
247 1 1 5.1031332344196052e+01 8.2528624359272797e+01 1.4919857026794570e+01 0 0 0
248 1 1 5.3862835669651197e+01 8.2487774486905664e+01 1.4918343042709164e+01 0 0 0
249 1 1 5.3170209624502462e+01 8.3728269926869046e+01 1.4915886676001358e+01 0 0 0
250 1 1 5.6003527521340082e+01 8.3685924705183865e+01 1.4914812678910836e+01 0 0 0
251 1 1 5.5310761728079989e+01 8.4926216082932839e+01 1.4911851335853441e+01 0 0 0
252 1 1 5.8145966021854925e+01 8.4882492916273605e+01 1.4911298575624620e+01 0 0 0
253 1 1 5.7453058408195488e+01 8.6122569985437707e+01 1.4907865807209877e+01 0 0 0
254 1 1 6.0290157696579733e+01 8.6077615379808691e+01 1.4907843819297259e+01 0 0 0
255 1 1 5.9597118634471400e+01 8.7317482602360798e+01 1.4904012740159047e+01 0 0 0
256 1 1 6.2436048316707627e+01 8.7271472844637103e+01 1.4904488603166051e+01 0 0 0
257 1 1 6.1742900462054827e+01 8.8511147517848443e+01 1.4900362532893059e+01 0 0 0
258 1 1 6.4583513177743285e+01 8.8464294942470104e+01 1.4901330601160765e+01 0 0 0
259 1 1 6.3890295734325669e+01 8.9703803013723373e+01 1.4897023577684770e+01 0 0 0
260 1 1 6.6732372399080646e+01 8.9656358989786071e+01 1.4898572370118679e+01 0 0 0
261 1 1 6.6039129406222287e+01 9.0895730096108196e+01 1.4894188540535763e+01 0 0 0
262 1 1 6.8882411676980041e+01 9.0847991919247150e+01 1.4896516247470055e+01 0 0 0
263 1 1 6.8189180931994358e+01 9.2087254851124897e+01 1.4892137488083678e+01 0 0 0
264 1 1 7.1033396830360545e+01 9.2039573963073650e+01 1.4895492508958323e+01 0 0 0
265 1 1 7.0340210069924737e+01 9.3278754915063189e+01 1.4891177785409182e+01 0 0 0
266 1 1 7.3185083908878752e+01 9.3231532974764434e+01 1.4895752196604638e+01 0 0 0
267 1 1 7.2491971087353662e+01 9.4470652996867159e+01 1.4891543573323384e+01 0 0 0
268 1 1 7.5337233910080244e+01 9.4424308663200520e+01 1.4897386806596165e+01 0 0 0
269 1 1 7.4644223995272711e+01 9.5663385660698111e+01 1.4893313017219439e+01 0 0 0
270 1 1 7.7489639388231737e+01 9.5618318265598361e+01 1.4900283393472975e+01 0 0 0
271 1 1 7.6796760928793915e+01 9.6857372586013170e+01 1.4896365321377846e+01 0 0 0
272 1 1 7.9642130146649507e+01 9.6813936920192489e+01 1.4904130970582862e+01 0 0 0
273 1 1 7.8949410791633980e+01 9.8052990417249219e+01 1.4900390008941537e+01 0 0 0
274 1 1 8.1794566519310507e+01 9.8011476523834688e+01 1.4908496632901802e+01 0 0 0
275 1 1 8.1102025114070656e+01 9.9250542614896773e+01 1.4904962183295369e+01 0 0 0
276 1 1 8.3946826574332505e+01 9.9211160410600385e+01 1.4912940188914218e+01 0 0 0
277 1 1 8.3254467106519755e+01 1.0045023787126428e+02 1.4909652442933490e+01 0 0 0
278 1 1 8.6098795928891462e+01 1.0041311217830494e+02 1.4917119123822344e+01 0 0 0
279 1 1 8.5406609720163146e+01 1.0165219331170762e+02 1.4914124968536775e+01 0 0 0
280 1 1 8.8250364312739578e+01 1.0161737382373961e+02 1.4920845201307790e+01 0 0 0
281 1 1 8.7558329960715341e+01 1.0285644730912286e+02 1.4918187965576545e+01 0 0 0
282 1 1 9.0401425145583318e+01 1.0282392348498421e+02 1.4924079927973656e+01 0 0 0
283 1 1 8.9709509412108559e+01 1.0406297562298501e+02 1.4921787113495872e+01 0 0 0
284 1 1 9.2551881927898023e+01 1.0403269130860639e+02 1.4926881552795040e+01 0 0 0
285 1 1 9.1860042208997470e+01 1.0527170675416667e+02 1.4924957962411584e+01 0 0 0
286 1 1 9.4701658709295600e+01 1.0524357316987899e+02 1.4929333273100687e+01 0 0 0
287 1 1 9.4009845968370939e+01 1.0648253490815671e+02 1.4927766119409075e+01 0 0 0
288 1 1 9.6850706134635288e+01 1.0645643904324717e+02 1.4931494450602028e+01 0 0 0
289 1 1 9.6158866194512001e+01 1.0769532845141984e+02 1.4930262753014809e+01 0 0 0
290 1 1 9.8999002942163656e+01 1.0767113415815447e+02 1.4933394639226160e+01 0 0 0
291 1 1 3.5470758531175889e+01 7.4234728903133429e-02 1.4932475296182455e+01 0 1 0
292 1 1 3.8310235202329530e+01 5.1787215161604783e-02 1.4935053036995642e+01 0 1 0
293 1 1 3.7618164320114673e+01 1.2904710492450278e+00 1.4934422192280902e+01 0 1 0
294 1 1 4.0457069049478825e+01 1.2696036653408522e+00 1.4936495976914294e+01 0 1 0
295 1 1 1.6457278503523537e+02 7.1585260969798654e+01 1.4938362447588311e+01 -1 0 0
296 1 1 1.6670338655448344e+02 7.2795036786612698e+01 1.4936768987485799e+01 -1 0 0
297 1 1 1.6601012736725900e+02 7.4035687988787870e+01 1.4936677539409569e+01 -1 0 0
298 1 1 4.3162167281357419e+01 7.4003604353514817e+01 1.4935052749711033e+01 0 0 0
299 1 1 1.6814160474384767e+02 7.5244260990760637e+01 1.4934678923154237e+01 -1 0 0
300 1 1 4.5294555705969763e+01 7.5210829068970867e+01 1.4933180244251840e+01 0 0 0
301 1 1 4.4601345676241984e+01 7.6451439542043815e+01 1.4932475010589737e+01 0 0 0
302 1 1 4.7428067437175152e+01 7.6416591427185395e+01 1.4931107755409585e+01 0 0 0
303 1 1 4.6734784013644294e+01 7.7657105291473883e+01 1.4930026592093929e+01 0 0 0
304 1 1 4.9562849376601022e+01 7.7620797454756158e+01 1.4928802772693849e+01 0 0 0
305 1 1 4.8869438138416285e+01 7.8861167370920256e+01 1.4927309215524222e+01 0 0 0
306 1 1 5.1699036274362541e+01 7.8823388330836465e+01 1.4926267626801055e+01 0 0 0
307 1 1 5.1005454062308608e+01 8.0063572220362659e+01 1.4924335742578375e+01 0 0 0
308 1 1 5.3836746952139400e+01 8.0024347546423542e+01 1.4923550545705483e+01 0 0 0
309 1 1 5.3142963561647498e+01 8.1264310393857542e+01 1.4921166043287446e+01 0 0 0
310 1 1 5.5976083159297545e+01 8.1223699346430422e+01 1.4920727220406715e+01 0 0 0
311 1 1 5.5282081817614063e+01 8.2463415464209135e+01 1.4917891541150459e+01 0 0 0
312 1 1 5.8117121735924165e+01 8.2421502809347615e+01 1.4917855778329882e+01 0 0 0
313 1 1 5.7422899276350037e+01 8.3660959004784075e+01 1.4914594110952276e+01 0 0 0
314 1 1 6.0259901524396582e+01 8.3617852154615207e+01 1.4914950216482699e+01 0 0 0
315 1 1 5.9565468105043813e+01 8.4857049576113141e+01 1.4911316489505991e+01 0 0 0
316 1 1 6.2404409639524651e+01 8.4812882354010185e+01 1.4912005290545999e+01 0 0 0
317 1 1 6.1709790023786105e+01 8.6051836010311646e+01 1.4908077773127960e+01 0 0 0
318 1 1 6.4550564723197354e+01 8.6006779013157725e+01 1.4909060626947909e+01 0 0 0
319 1 1 6.3855806376643947e+01 8.7245515193389039e+01 1.4904929315833492e+01 0 0 0
320 1 1 6.6698227335500718e+01 8.7199782779422492e+01 1.4906263587605357e+01 0 0 0
321 1 1 6.6003388076202185e+01 8.8438335095844579e+01 1.4902016283457504e+01 0 0 0
322 1 1 6.8847215886555219e+01 8.8392193988007023e+01 1.4903886929682585e+01 0 0 0
323 1 1 6.8152350696725776e+01 8.9630598881460159e+01 1.4899600977117780e+01 0 0 0
324 1 1 7.0997317556541162e+01 8.9584375422137839e+01 1.4902277768050205e+01 0 0 0
325 1 1 7.0302476615439446e+01 9.0822669401784466e+01 1.4898019703715869e+01 0 0 0
326 1 1 7.3148301030295642e+01 9.0776744348659477e+01 1.4901755464258173e+01 0 0 0
327 1 1 7.2453530436833105e+01 9.2014962054381499e+01 1.4897583458642845e+01 0 0 0
328 1 1 7.5299922658302989e+01 9.1969746048554214e+01 1.4902514951821074e+01 0 0 0
329 1 1 7.4605267124340145e+01 9.3207916218425538e+01 1.4898478406566369e+01 0 0 0
330 1 1 7.7451948349453545e+01 9.3163813213373288e+01 1.4904567479483541e+01 0 0 0
331 1 1 7.6757449104289378e+01 9.4401964373582942e+01 1.4900704319624827e+01 0 0 0
332 1 1 7.9604177247581703e+01 9.4359340004585547e+01 1.4907710904638973e+01 0 0 0
333 1 1 7.8909872189994573e+01 9.5597501991393415e+01 1.4904047231099819e+01 0 0 0
334 1 1 8.1756446859541683e+01 9.5556658154361600e+01 1.4911567111114964e+01 0 0 0
335 1 1 8.1062369140979030e+01 9.6794859818082841e+01 1.4908121362873691e+01 0 0 0
336 1 1 8.3908627784004409e+01 9.6756019790218858e+01 1.4915681423152861e+01 0 0 0
337 1 1 8.3214797611866246e+01 9.7994277412825099e+01 1.4912471035836782e+01 0 0 0
338 1 1 8.6060610256233289e+01 9.7957580157587017e+01 1.4919642724792054e+01 0 0 0
339 1 1 8.5367030491128446e+01 9.9195892294527837e+01 1.4916689187241552e+01 0 0 0
340 1 1 8.8212292950399075e+01 9.9161397820283739e+01 1.4923176477962540e+01 0 0 0
341 1 1 8.7518954109064296e+01 1.0039975649710199e+02 1.4920505017615875e+01 0 0 0
342 1 1 9.0363579999483761e+01 1.0036746251595420e+02 1.4926179592049362e+01 0 0 0
343 1 1 8.9670460921168640e+01 1.0160585630343130e+02 1.4923812546038592e+01 0 0 0
344 1 1 9.2514379404412637e+01 1.0157571633432254e+02 1.4928691936009292e+01 0 0 0
345 1 1 9.1821448323641548e+01 1.0281413159289976e+02 1.4926639134693007e+01 0 0 0
346 1 1 9.4664607932677882e+01 1.0278607022024188e+02 1.4930820545160371e+01 0 0 0
347 1 1 9.3971824682616969e+01 1.0402449177663766e+02 1.4929075061479665e+01 0 0 0
348 1 1 9.6814201570706771e+01 1.0399841224890292e+02 1.4932657451730648e+01 0 0 0
349 1 1 9.6121519407832096e+01 1.0523682310097256e+02 1.4931201138040388e+01 0 0 0
350 1 1 9.8963121864348267e+01 1.0521260660829586e+02 1.4934248510118810e+01 0 0 0
351 1 1 9.8270488280154169e+01 1.0645098780169647e+02 1.4933061906889867e+01 0 0 0
352 1 1 1.0111135585011539e+02 1.0642849552788415e+02 1.4935612918140512e+01 0 0 0
353 1 1 1.0041871414587652e+02 1.0766682672663048e+02 1.4934679218154129e+01 0 0 0
354 1 1 1.0325891364725685e+02 1.0764590530293130e+02 1.4936769266057230e+01 0 0 0
355 1 1 3.9729885650048608e+01 4.8468837111993790e-02 1.4936074370097309e+01 0 1 0
356 1 1 4.2569505882800001e+01 2.8956845815941934e-02 1.4937750281379309e+01 0 1 0
357 1 1 4.1876670218590831e+01 1.2671243107499284e+00 1.4937281214098332e+01 0 1 0