LAMMPS data file via write_data, version 4 Feb 2020, timestep = 54848

5044 atoms
1 atom types

2.0880707700246713e-02 2.3859911929229935e+02 xlo xhi
2.4235247741447707e-03 2.7693068884225791e+01 ylo yhi
0.0000000000000000e+00 1.8300000000000000e+02 zlo zhi
1.5987201554638075e+01 0.0000000000000000e+00 0.0000000000000000e+00 xy xz yz

Masses

1 12.011

Atoms # molecular

1 1 1 1.6612872315766396e+01 2.7338060280374453e+01 1.4910254936292858e+01 0 -1 0
2 1 1 3.0852402310805269e+00 1.0674480163020024e+00 1.4910556158806408e+01 0 0 0
3 2 1 2.3797412461366173e+02 3.5743146651559343e-01 1.8349746604075051e+01 -1 0 0
4 2 1 1.8554554989711425e+00 1.7774645619231031e+00 1.8350047826286740e+01 0 0 0
5 1 1 1.9072441785748182e+01 2.7338060280287756e+01 1.4910254929041743e+01 0 -1 0
6 1 1 5.5448097010691990e+00 1.0674480162237114e+00 1.4910556152285954e+01 0 0 0
7 2 1 1.8554554989285374e+00 3.5743146649622587e-01 1.8349746596375279e+01 0 0 0
8 2 1 4.3150249688332192e+00 1.7774645619142200e+00 1.8350047819177441e+01 0 0 0
9 1 1 2.1532011255741530e+01 2.7338060280206715e+01 1.4910254922806152e+01 0 -1 0
10 1 1 8.0043791710701413e+00 1.0674480161611126e+00 1.4910556146850581e+01 0 0 0
11 2 1 4.3150249687838427e+00 3.5743146649192487e-01 1.8349746589471160e+01 0 0 0
12 2 1 6.7745944386857815e+00 1.7774645619090537e+00 1.8350047812956191e+01 0 0 0
13 1 1 2.3991580725748289e+01 2.7338060280140773e+01 1.4910254917784846e+01 0 -1 0
14 1 1 1.0463948641079698e+01 1.0674480161027120e+00 1.4910556142714855e+01 0 0 0
15 2 1 6.7745944386346419e+00 3.5743146648825408e-01 1.8349746583593792e+01 0 0 0
16 2 1 9.2341639085382941e+00 1.7774645619093619e+00 1.8350047807856562e+01 0 0 0
17 1 1 2.6451150195758668e+01 2.7338060280082612e+01 1.4910254914176225e+01 0 -1 0
18 1 1 1.2923518111087903e+01 1.0674480160322672e+00 1.4910556139944227e+01 0 0 0
19 2 1 9.2341639084896254e+00 3.5743146649222363e-01 1.8349746578980344e+01 0 0 0
20 2 1 1.1693733378385192e+01 1.7774645619130442e+00 1.8350047804112382e+01 0 0 0
21 1 1 2.8910719665765743e+01 2.7338060280012453e+01 1.4910254911967025e+01 0 -1 0
22 1 1 1.5383087581091194e+01 1.0674480159612190e+00 1.4910556138538084e+01 0 0 0
23 2 1 1.1693733378346231e+01 3.5743146649620267e-01 1.8349746575815484e+01 0 0 0
24 2 1 1.4153302848235782e+01 1.7774645619225928e+00 1.8350047801804752e+01 0 0 0
25 1 1 3.1370289135768722e+01 2.7338060279943349e+01 1.4910254911086843e+01 0 -1 0
26 1 1 1.7842657051096538e+01 1.0674480158998205e+00 1.4910556138463850e+01 0 0 0
27 2 1 1.4153302848198276e+01 3.5743146650862612e-01 1.8349746574080346e+01 0 0 0
28 2 1 1.6612872318091132e+01 1.7774645619529499e+00 1.8350047800897574e+01 0 0 0
29 1 1 3.3829858605774710e+01 2.7338060279884793e+01 1.4910254911462784e+01 0 -1 0
30 1 1 2.0302226521100874e+01 1.0674480158588169e+00 1.4910556139572686e+01 0 0 0
31 2 1 1.6612872318055580e+01 3.5743146653648050e-01 1.8349746573631773e+01 0 0 0
32 2 1 1.9072441787961665e+01 1.7774645620017893e+00 1.8350047801205747e+01 0 0 0
33 1 1 3.6289428075776279e+01 2.7338060279846349e+01 1.4910254912921287e+01 0 -1 0
34 1 1 2.2761795991098687e+01 1.0674480158280175e+00 1.4910556141771451e+01 0 0 0
35 2 1 1.9072441787927112e+01 3.5743146658506758e-01 1.8349746574309851e+01 0 0 0
36 2 1 2.1532011257842750e+01 1.7774645620518352e+00 1.8350047802656796e+01 0 0 0
37 1 1 3.8748997545771708e+01 2.7338060279817395e+01 1.4910254915391903e+01 0 -1 0
38 1 1 2.5221365461080790e+01 1.0674480157887944e+00 1.4910556144911496e+01 0 0 0
39 2 1 2.1532011257810826e+01 3.5743146662924413e-01 1.8349746576081120e+01 0 0 0
40 2 1 2.3991580727733162e+01 1.7774645620813145e+00 1.8350047805191629e+01 0 0 0
41 1 1 4.1208567015748706e+01 2.7338060279781470e+01 1.4910254918766528e+01 0 -1 0
42 1 1 2.7680934931048274e+01 1.0674480157424113e+00 1.4910556148902675e+01 0 0 0
43 2 1 2.3991580727706385e+01 3.5743146665603004e-01 1.8349746578882094e+01 0 0 0
44 2 1 2.6451150197626546e+01 1.7774645621037402e+00 1.8350047808661753e+01 0 0 0
45 1 1 4.3668136485709525e+01 2.7338060279739828e+01 1.4910254922980235e+01 0 -1 0
46 1 1 3.0140504401008030e+01 1.0674480157031958e+00 1.4910556153635792e+01 0 0 0
47 2 1 2.6451150197608019e+01 3.5743146667337489e-01 1.8349746582592338e+01 0 0 0
48 2 1 2.8910719667532053e+01 1.7774645621202068e+00 1.8350047812978257e+01 0 0 0
49 1 1 4.6127705955660595e+01 2.7338060279704219e+01 1.4910254927898624e+01 0 -1 0
50 1 1 3.2600073870960195e+01 1.0674480156793698e+00 1.4910556158839407e+01 0 0 0
51 2 1 2.8910719667517434e+01 3.5743146668237996e-01 1.8349746587127242e+01 0 0 0
52 2 1 3.1370289137450914e+01 1.7774645621346938e+00 1.8350047817916110e+01 0 0 0
53 1 1 4.8587275425605355e+01 2.7338060279687948e+01 1.4910254933191736e+01 0 -1 0
54 1 1 3.5059643340899889e+01 1.0674480156753363e+00 1.4910556164052361e+01 0 0 0
55 2 1 3.1370289137446825e+01 3.5743146669344011e-01 1.8349746592223894e+01 0 0 0
56 2 1 3.3829858607377538e+01 1.7774645621354586e+00 1.8350047823127955e+01 0 0 0
57 1 1 5.1046844895530640e+01 2.7338060279689177e+01 1.4910254938377554e+01 0 -1 0
58 1 1 3.7519212810821166e+01 1.0674480156854809e+00 1.4910556168827089e+01 0 0 0
59 2 1 3.3829858607384175e+01 3.5743146669165193e-01 1.8349746597504538e+01 0 0 0
60 2 1 3.6289428077314618e+01 1.7774645621187080e+00 1.8350047828212418e+01 0 0 0
61 1 1 5.3506414365440214e+01 2.7338060279704678e+01 1.4910254943020767e+01 0 -1 0
62 1 1 3.9978782280719258e+01 1.0674480157027992e+00 1.4910556172929400e+01 0 0 0
63 2 1 3.6289428077334229e+01 3.5743146666932779e-01 1.8349746602522924e+01 0 0 0
64 2 1 3.8748997547267194e+01 1.7774645620800860e+00 1.8350047832741705e+01 0 0 0
65 1 1 5.5965983835330974e+01 2.7338060279727781e+01 1.4910254946895540e+01 0 -1 0
66 1 1 4.2438351750613570e+01 1.0674480157319410e+00 1.4910556176243251e+01 0 0 0
67 2 1 3.8748997547296653e+01 3.5743146662614722e-01 1.8349746606854108e+01 0 0 0
68 2 1 4.1208567017233840e+01 1.7774645620378557e+00 1.8350047836547667e+01 0 0 0
69 1 1 5.8425553305222287e+01 2.7338060279758043e+01 1.4910254949911703e+01 0 -1 0
70 1 1 4.4897921220510128e+01 1.0674480157746415e+00 1.4910556178748831e+01 0 0 0
71 2 1 4.1208567017272841e+01 3.5743146658095776e-01 1.8349746610397538e+01 0 0 0
72 2 1 4.3668136487220394e+01 1.7774645620050458e+00 1.8350047839627312e+01 0 0 0
73 1 1 6.0885122775112130e+01 2.7338060279807905e+01 1.4910254952057521e+01 0 -1 0
74 1 1 4.7357490690407040e+01 1.0674480158366353e+00 1.4910556180368403e+01 0 0 0
75 2 1 4.3668136487260952e+01 3.5743146654447694e-01 1.8349746613155720e+01 0 0 0
76 2 1 4.6127705957225636e+01 1.7774645619855041e+00 1.8350047841937897e+01 0 0 0
77 1 1 6.3344692245006762e+01 2.7338060279869254e+01 1.4910254953258214e+01 0 -1 0
78 1 1 4.9817060160297942e+01 1.0674480158939823e+00 1.4910556180990428e+01 0 0 0
79 2 1 4.6127705957266897e+01 3.5743146652036156e-01 1.8349746615081173e+01 0 0 0
80 2 1 4.8587275427241607e+01 1.7774645619586780e+00 1.8350047843351113e+01 0 0 0
81 1 1 6.5804261714891439e+01 2.7338060279928492e+01 1.4910254953447780e+01 0 -1 0
82 1 1 5.2276629630174163e+01 1.0674480159457462e+00 1.4910556180452550e+01 0 0 0
83 2 1 4.8587275427282094e+01 3.5743146649196939e-01 1.8349746616066145e+01 0 0 0
84 2 1 5.1046844897262297e+01 1.7774645619223097e+00 1.8350047843621301e+01 0 0 0
85 1 1 6.8263831184766019e+01 2.7338060279981203e+01 1.4910254952440871e+01 0 -1 0
86 1 1 5.4736199100038142e+01 1.0674480159845916e+00 1.4910556178473035e+01 0 0 0
87 2 1 5.1046844897304311e+01 3.5743146645085139e-01 1.8349746615882584e+01 0 0 0
88 2 1 5.3506414367291299e+01 1.7774645618743148e+00 1.8350047842549134e+01 0 0 0
89 1 1 7.0723400654631931e+01 2.7338060280020606e+01 1.4910254949940827e+01 0 -1 0
90 1 1 5.7195768569901794e+01 1.0674480160144708e+00 1.4910556174899643e+01 0 0 0
91 2 1 5.3506414367333363e+01 3.5743146640279055e-01 1.8349746614338372e+01 0 0 0
92 2 1 5.5965983837317637e+01 1.7774645618262488e+00 1.8350047839983887e+01 0 0 0
93 1 1 7.3182970124497515e+01 2.7338060280050101e+01 1.4910254945893879e+01 0 -1 0
94 1 1 5.9655338039766910e+01 1.0674480160359736e+00 1.4910556169780584e+01 0 0 0
95 2 1 5.5965983837360206e+01 3.5743146635611867e-01 1.8349746611305228e+01 0 0 0
96 2 1 5.8425553307339705e+01 1.7774645617817022e+00 1.8350047835865453e+01 0 0 0
97 1 1 7.5642539594357729e+01 2.7338060280070710e+01 1.4910254940399524e+01 0 -1 0
98 1 1 6.2114907509633724e+01 1.0674480160540101e+00 1.4910556163398969e+01 0 0 0
99 2 1 5.8425553307377577e+01 3.5743146631227984e-01 1.8349746606770825e+01 0 0 0
100 2 1 6.0885122777348933e+01 1.7774645617345810e+00 1.8350047830303584e+01 0 0 0
101 1 1 7.8102109064225331e+01 2.7338060280087017e+01 1.4910254933740960e+01 0 -1 0
102 1 1 6.4574476979506784e+01 1.0674480160673863e+00 1.4910556156103210e+01 0 0 0
103 2 1 6.0885122777385064e+01 3.5743146626727573e-01 1.8349746600865501e+01 0 0 0
104 2 1 6.3344692247349734e+01 1.7774645616874105e+00 1.8350047823589080e+01 0 0 0
105 1 1 8.0561678534103592e+01 2.7338060280095522e+01 1.4910254926233030e+01 0 -1 0
106 1 1 6.7034046449393088e+01 1.0674480160802344e+00 1.4910556148122463e+01 0 0 0
107 2 1 6.3344692247378269e+01 3.5743146622578448e-01 1.8349746593871341e+01 0 0 0
108 2 1 6.5804261717343039e+01 1.7774645616457894e+00 1.8350047816017295e+01 0 0 0
109 1 1 8.3021248003994529e+01 2.7338060280103814e+01 1.4910254918016419e+01 0 -1 0
110 1 1 6.9493615919291202e+01 1.0674480160859305e+00 1.4910556139533304e+01 0 0 0
111 2 1 6.5804261717366217e+01 3.5743146618602167e-01 1.8349746586037249e+01 0 0 0
112 2 1 6.8263831187326957e+01 1.7774645616012366e+00 1.8350047807775905e+01 0 0 0
113 1 1 8.5480817473904125e+01 2.7338060280105953e+01 1.4910254909130437e+01 0 -1 0
114 1 1 7.1953185389205089e+01 1.0674480160918047e+00 1.4910556130318787e+01 0 0 0
115 2 1 6.8263831187345161e+01 3.5743146614763111e-01 1.8349746577530404e+01 0 0 0
116 2 1 7.0723400657305504e+01 1.7774645615632758e+00 1.8350047798988587e+01 0 0 0
117 1 1 8.7940386943826425e+01 2.7338060280105324e+01 1.4910254899603634e+01 0 -1 0
118 1 1 7.4412754859145593e+01 1.0674480161064976e+00 1.4910556120428637e+01 0 0 0
119 2 1 7.0723400657316702e+01 3.5743146611343080e-01 1.8349746568475997e+01 0 0 0
120 2 1 7.3182970127283028e+01 1.7774645615488562e+00 1.8350047789645828e+01 0 0 0
121 1 1 9.0399956413772131e+01 2.7338060280115513e+01 1.4910254889455071e+01 0 -1 0
122 1 1 7.6872324329095846e+01 1.0674480161168514e+00 1.4910556109877078e+01 0 0 0
123 2 1 7.3182970127279688e+01 3.5743146610141580e-01 1.8349746558864549e+01 0 0 0
124 2 1 7.5642539597249296e+01 1.7774645615542046e+00 1.8350047779621221e+01 0 0 0
125 1 1 9.2859525883738129e+01 2.7338060280124097e+01 1.4910254878743601e+01 0 -1 0
126 1 1 7.9331893799062826e+01 1.0674480161132935e+00 1.4910556098815123e+01 0 0 0
127 2 1 7.5642539597234489e+01 3.5743146611357440e-01 1.8349746548620740e+01 0 0 0
128 2 1 7.8102109067200828e+01 1.7774645615786790e+00 1.8350047768891375e+01 0 0 0
129 1 1 9.5319095353717202e+01 2.7338060280115894e+01 1.4910254867656047e+01 0 -1 0
130 1 1 8.1791463269040790e+01 1.0674480160937634e+00 1.4910556087514903e+01 0 0 0
131 2 1 7.8102109067178347e+01 3.5743146614064608e-01 1.8349746537768585e+01 0 0 0
132 2 1 8.0561678537136672e+01 1.7774645616016427e+00 1.8350047757632638e+01 0 0 0
133 1 1 9.7778664823706364e+01 2.7338060280088982e+01 1.4910254856449423e+01 0 -1 0
134 1 1 8.4251032739033903e+01 1.0674480160662967e+00 1.4910556076247866e+01 0 0 0
135 2 1 8.0561678537103361e+01 3.5743146617192711e-01 1.8349746526516501e+01 0 0 0
136 2 1 8.3021248007048683e+01 1.7774645616281006e+00 1.8350047746193638e+01 0 0 0
137 1 1 1.0023823429371195e+02 2.7338060280055799e+01 1.4910254845320543e+01 0 -1 0
138 1 1 8.6710602209050876e+01 1.0674480160408961e+00 1.4910556065158328e+01 0 0 0
139 2 1 8.3021248007003763e+01 3.5743146620656219e-01 1.8349746515195232e+01 0 0 0
140 2 1 8.5480817476936963e+01 1.7774645616631244e+00 1.8350047734931536e+01 0 0 0
141 1 1 1.0269780376373562e+02 2.7338060280024145e+01 1.4910254834340984e+01 0 -1 0
142 1 1 8.9170171679090089e+01 1.0674480160184916e+00 1.4910556054311131e+01 0 0 0
143 2 1 8.5480817476885136e+01 3.5743146624881256e-01 1.8349746504063397e+01 0 0 0
144 2 1 8.7940386946808033e+01 1.7774645617180302e+00 1.8350047723942357e+01 0 0 0
145 1 1 1.0515737323378720e+02 2.7338060279993048e+01 1.4910254823537215e+01 0 -1 0
146 1 1 9.1629741149152153e+01 1.0674480159806143e+00 1.4910556043700574e+01 0 0 0
147 2 1 8.7940386946745917e+01 3.5743146631007461e-01 1.8349746493139300e+01 0 0 0
148 2 1 9.0399956416657361e+01 1.7774645617902129e+00 1.8350047713206038e+01 0 0 0
149 1 1 1.0761694270386097e+02 2.7338060279947936e+01 1.4910254812928565e+01 0 -1 0
150 1 1 9.4089310619229380e+01 1.0674480159233228e+00 1.4910556033340232e+01 0 0 0
151 2 1 9.0399956416585297e+01 3.5743146638928125e-01 1.8349746482407561e+01 0 0 0
152 2 1 9.2859525886481762e+01 1.7774645618684553e+00 1.8350047702702792e+01 0 0 0
153 1 1 1.1007651217394888e+02 2.7338060279885667e+01 1.4910254802566497e+01 0 -1 0
154 1 1 9.6548880089321798e+01 1.0674480158605084e+00 1.4910556023328109e+01 0 0 0
155 2 1 9.2859525886403333e+01 3.5743146647526536e-01 1.8349746471886441e+01 0 0 0
156 2 1 9.5319095356287633e+01 1.7774645619466161e+00 1.8350047692491707e+01 0 0 0
157 1 1 1.1253608164405480e+02 2.7338060279817022e+01 1.4910254792613399e+01 0 -1 0
158 1 1 9.9008449559428414e+01 1.0674480158029469e+00 1.4910556013808486e+01 0 0 0
159 2 1 9.5319095356202311e+01 3.5743146655715391e-01 1.8349746461699795e+01 0 0 0
160 2 1 9.7778664826084082e+01 1.7774645620270542e+00 1.8350047682699461e+01 0 0 0
161 1 1 1.1499565111417411e+02 2.7338060279755815e+01 1.4910254783309053e+01 0 -1 0
162 1 1 1.0146801902955568e+02 1.0674480157558099e+00 1.4910556005118341e+01 0 0 0
163 2 1 9.7778664825991939e+01 3.5743146664368541e-01 1.8349746452044108e+01 0 0 0
164 2 1 1.0023823429587489e+02 1.7774645621349199e+00 1.8350047673455826e+01 0 0 0
165 1 1 1.1745522058430801e+02 2.7338060279705662e+01 1.4910254774999043e+01 0 -1 0
166 1 1 1.0392758849969425e+02 1.0674480157027322e+00 1.4910555997473557e+01 0 0 0
167 2 1 1.0023823429577311e+02 3.5743146675603815e-01 1.8349746443067581e+01 0 0 0
168 2 1 1.0269780376565829e+02 1.7774645622706184e+00 1.8350047664993724e+01 0 0 0
169 1 1 1.1991479005445693e+02 2.7338060279646935e+01 1.4910254767815619e+01 0 -1 0
170 1 1 1.0638715796984334e+02 1.0674480156270398e+00 1.4910555990970510e+01 0 0 0
171 2 1 1.0269780376554455e+02 3.5743146689704852e-01 1.8349746435003123e+01 0 0 0
172 2 1 1.0515737323542197e+02 1.7774645624231251e+00 1.8350047657585502e+01 0 0 0
173 1 1 1.2237435952461722e+02 2.7338060279567820e+01 1.4910254761769087e+01 0 -1 0
174 1 1 1.0884672744000848e+02 1.0674480155406871e+00 1.4910555985640038e+01 0 0 0
175 2 1 1.0515737323530512e+02 3.5743146705259043e-01 1.8349746428081517e+01 0 0 0
176 2 1 1.0761694270517457e+02 1.7774645625795398e+00 1.8350047651466870e+01 0 0 0
177 1 1 1.2483392899479342e+02 2.7338060279476430e+01 1.4910254756853730e+01 0 -1 0
178 1 1 1.1130629691019472e+02 1.0674480154575665e+00 1.4910555981554415e+01 0 0 0
179 2 1 1.0761694270504992e+02 3.5743146721516356e-01 1.8349746422432133e+01 0 0 0
180 2 1 1.1007651217492172e+02 1.7774645627480907e+00 1.8350047646658027e+01 0 0 0
181 1 1 1.2729349846498522e+02 2.7338060279388134e+01 1.4910254753180107e+01 0 -1 0
182 1 1 1.1376586638039406e+02 1.0674480153795156e+00 1.4910555978967317e+01 0 0 0
183 2 1 1.1007651217479051e+02 3.5743146738786929e-01 1.8349746418029305e+01 0 0 0
184 2 1 1.1253608164466073e+02 1.7774645629239814e+00 1.8350047643190994e+01 0 0 0
185 1 1 1.2975306793518601e+02 2.7338060279306330e+01 1.4910254751067695e+01 0 -1 0
186 1 1 1.1622543585060139e+02 1.0674480152937400e+00 1.4910555978087352e+01 0 0 0
187 2 1 1.1253608164452753e+02 3.5743146756927469e-01 1.8349746414949127e+01 0 0 0
188 2 1 1.1499565111439095e+02 1.7774645631069923e+00 1.8350047641156735e+01 0 0 0
189 1 1 1.3221263740539217e+02 2.7338060279219047e+01 1.4910254750727486e+01 0 -1 0
190 1 1 1.1868500532080938e+02 1.0674480151943118e+00 1.4910555979035980e+01 0 0 0
191 2 1 1.1499565111425566e+02 3.5743146775413320e-01 1.8349746413359444e+01 0 0 0
192 2 1 1.1745522058411055e+02 1.7774645633007553e+00 1.8350047640711793e+01 0 0 0
193 1 1 1.3467220687559922e+02 2.7338060279119549e+01 1.4910254752261526e+01 0 -1 0
194 1 1 1.2114457479101335e+02 1.0674480150839361e+00 1.4910555981881602e+01 0 0 0
195 2 1 1.1745522058397189e+02 3.5743146794819569e-01 1.8349746413480876e+01 0 0 0
196 2 1 1.1991479005382358e+02 1.7774645634953645e+00 1.8350047642180886e+01 0 0 0
197 1 1 1.3713177634580478e+02 2.7338060279010609e+01 1.4910254755757622e+01 0 -1 0
198 1 1 1.2360414426121571e+02 1.0674480149707601e+00 1.4910555986677432e+01 0 0 0
199 2 1 1.1991479005368889e+02 3.5743146814251786e-01 1.8349746415623610e+01 0 0 0
200 2 1 1.2237435952353506e+02 1.7774645636784394e+00 1.8350047645723755e+01 0 0 0
201 1 1 1.3959134581600264e+02 2.7338060278900297e+01 1.4910254761239782e+01 0 -1 0
202 1 1 1.2606371373140581e+02 1.0674480148633398e+00 1.4910555993412565e+01 0 0 0
203 2 1 1.2237435952340232e+02 3.5743146832361666e-01 1.8349746419886092e+01 0 0 0
204 2 1 1.2483392899325690e+02 1.7774645638470412e+00 1.8350047651313158e+01 0 0 0
205 1 1 1.4205091528618459e+02 2.7338060278796391e+01 1.4910254768652825e+01 0 -1 0
206 1 1 1.2852328320158111e+02 1.0674480147605079e+00 1.4910556002003439e+01 0 0 0
207 2 1 1.2483392899312594e+02 3.5743146848829216e-01 1.8349746426183891e+01 0 0 0
208 2 1 1.2729349846298713e+02 1.7774645640048852e+00 1.8350047658784270e+01 0 0 0
209 1 1 1.4451048475635409e+02 2.7338060278697874e+01 1.4910254777886163e+01 0 -1 0
210 1 1 1.3098285267174361e+02 1.0674480146575775e+00 1.4910556012294547e+01 0 0 0
211 2 1 1.2729349846285989e+02 3.5743146864248448e-01 1.8349746434284764e+01 0 0 0
212 2 1 1.2975306793273154e+02 1.7774645641531357e+00 1.8350047667858707e+01 0 0 0
213 1 1 1.4697005422650872e+02 2.7338060278596657e+01 1.4910254788768192e+01 0 -1 0
214 1 1 1.3344242214189850e+02 1.0674480145608121e+00 1.4910556024199337e+01 0 0 0
215 2 1 1.2975306793260646e+02 3.5743146878339332e-01 1.8349746443923756e+01 0 0 0
216 2 1 1.3221263740249475e+02 1.7774645643027447e+00 1.8350047678507661e+01 0 0 0
217 1 1 1.4942962369665443e+02 2.7338060278505864e+01 1.4910254801225131e+01 0 -1 0
218 1 1 1.3590199161204725e+02 1.0674480144736971e+00 1.4910556037742648e+01 0 0 0
219 2 1 1.3221263740237467e+02 3.5743146892876038e-01 1.8349746455143247e+01 0 0 0
220 2 1 1.3467220687227092e+02 1.7774645644545892e+00 1.8350047690869463e+01 0 0 0
221 1 1 1.5188919316679375e+02 2.7338060278422756e+01 1.4910254815294238e+01 0 -1 0
222 1 1 1.3836156108218557e+02 1.0674480143926630e+00 1.4910556052934718e+01 0 0 0
223 2 1 1.3467220687216178e+02 3.5743146907451678e-01 1.8349746468079452e+01 0 0 0
224 2 1 1.3713177634207076e+02 1.7774645645899869e+00 1.8350047705042574e+01 0 0 0
225 1 1 1.5434876263691507e+02 2.7338060278349321e+01 1.4910254830988373e+01 0 -1 0
226 1 1 1.4082113055229919e+02 1.0674480143223160e+00 1.4910556069708385e+01 0 0 0
227 2 1 1.3713177634197476e+02 3.5743146920166130e-01 1.8349746482798647e+01 0 0 0
228 2 1 1.3959134581188849e+02 1.7774645647001921e+00 1.8350047720929677e+01 0 0 0
229 1 1 1.5680833210701513e+02 2.7338060278285624e+01 1.4910254848226062e+01 0 -1 0
230 1 1 1.4328070002238638e+02 1.0674480142636991e+00 1.4910556087818929e+01 0 0 0
231 2 1 1.3959134581180734e+02 3.5743146930624603e-01 1.8349746499173332e+01 0 0 0
232 2 1 1.4205091528172039e+02 1.7774645647913712e+00 1.8350047738235613e+01 0 0 0
233 1 1 1.5926790157708371e+02 2.7338060278236057e+01 1.4910254866709240e+01 0 -1 0
234 1 1 1.4574026949244464e+02 1.0674480142199829e+00 1.4910556106858401e+01 0 0 0
235 2 1 1.4205091528165153e+02 3.5743146939002496e-01 1.8349746516882274e+01 0 0 0
236 2 1 1.4451048475156875e+02 1.7774645648679821e+00 1.8350047756623969e+01 0 0 0
237 1 1 1.6172747104712175e+02 2.7338060278203422e+01 1.4910254885975480e+01 0 -1 0
238 1 1 1.4819983896247118e+02 1.0674480141920815e+00 1.4910556126387066e+01 0 0 0
239 2 1 1.4451048475151759e+02 3.5743146945655119e-01 1.8349746535586860e+01 0 0 0
240 2 1 1.4697005422144099e+02 1.7774645649261644e+00 1.8350047775797321e+01 0 0 0
241 1 1 1.6418704051712800e+02 2.7338060278184130e+01 1.4910254905608749e+01 0 -1 0
242 1 1 1.5065940843246639e+02 1.0674480141605884e+00 1.4910556146082589e+01 0 0 0
243 2 1 1.4697005422140657e+02 3.5743146950773957e-01 1.8349746554975106e+01 0 0 0
244 2 1 1.4942962369133855e+02 1.7774645649673444e+00 1.8350047795412898e+01 0 0 0
245 1 1 1.6664660998711150e+02 2.7338060278162853e+01 1.4910254925341073e+01 0 -1 0
246 1 1 1.5311897790243103e+02 1.0674480141351148e+00 1.4910556165815786e+01 0 0 0
247 2 1 1.4942962369132027e+02 3.5743146953573263e-01 1.8349746574678537e+01 0 0 0
248 2 1 1.5188919316126356e+02 1.7774645649759235e+00 1.8350047815160845e+01 0 0 0
249 1 1 1.6910617945705744e+02 2.7338060278147374e+01 1.4910254945086706e+01 0 -1 0
250 1 1 1.5557854737236963e+02 1.0674480141347691e+00 1.4910556185535782e+01 0 0 0
251 2 1 1.5188919316126095e+02 3.5743146953593458e-01 1.8349746594428552e+01 0 0 0
252 2 1 1.5434876263121984e+02 1.7774645649618348e+00 1.8350047834899911e+01 0 0 0
253 1 1 1.7156574892697827e+02 2.7338060278156824e+01 1.4910254964785869e+01 0 -1 0
254 1 1 1.5803811684227844e+02 1.0674480141633382e+00 1.4910556205115780e+01 0 0 0
255 2 1 1.5434876263123780e+02 3.5743146950808713e-01 1.8349746614152878e+01 0 0 0
256 2 1 1.5680833210121469e+02 1.7774645649348211e+00 1.8350047854567467e+01 0 0 0
257 1 1 1.7402531839687131e+02 2.7338060278193939e+01 1.4910254984241529e+01 0 -1 0
258 1 1 1.6049768631216151e+02 1.0674480142152016e+00 1.4910556224249429e+01 0 0 0
259 2 1 1.5680833210124155e+02 3.5743146947152327e-01 1.8349746633768891e+01 0 0 0
260 2 1 1.5926790157123867e+02 1.7774645649051706e+00 1.8350047874044318e+01 0 0 0
261 1 1 1.7648488786673991e+02 2.7338060278255217e+01 1.4910255003124893e+01 0 -1 0
262 1 1 1.6295725578201689e+02 1.0674480142832250e+00 1.4910556242627848e+01 0 0 0
263 2 1 1.5926790157128221e+02 3.5743146943155302e-01 1.8349746653096346e+01 0 0 0
264 2 1 1.6172747104128683e+02 1.7774645648572582e+00 1.8350047893060061e+01 0 0 0
265 1 1 1.7894445733657881e+02 2.7338060278334829e+01 1.4910255021145190e+01 0 -1 0
266 1 1 1.6541682525184459e+02 1.0674480143651821e+00 1.4910556259976888e+01 0 0 0
267 2 1 1.6172747104134959e+02 3.5743146937438108e-01 1.8349746671822512e+01 0 0 0
268 2 1 1.6418704051135816e+02 1.7774645647948146e+00 1.8350047911207209e+01 0 0 0
269 1 1 1.8140402680639693e+02 2.7338060278425626e+01 1.4910255038038407e+01 0 -1 0
270 1 1 1.6787639472165594e+02 1.0674480144575245e+00 1.4910556275966723e+01 0 0 0
271 2 1 1.6418704051144243e+02 3.5743146930387487e-01 1.8349746689539160e+01 0 0 0
272 2 1 1.6664660998145197e+02 1.7774645647175800e+00 1.8350047928044329e+01 0 0 0
273 1 1 1.8386359627619876e+02 2.7338060278524015e+01 1.4910255053491960e+01 0 -1 0
274 1 1 1.7033596419144672e+02 1.0674480145654637e+00 1.4910556290308405e+01 0 0 0
275 2 1 1.6664660998155392e+02 3.5743146922008673e-01 1.8349746705870782e+01 0 0 0
276 2 1 1.6910617945156361e+02 1.7774645646281206e+00 1.8350047943370832e+01 0 0 0
277 1 1 1.8632316574597633e+02 2.7338060278638537e+01 1.4910255067266295e+01 0 -1 0
278 1 1 1.7279553366120950e+02 1.0674480146875607e+00 1.4910556302877140e+01 0 0 0
279 2 1 1.6910617945167533e+02 3.5743146912616269e-01 1.8349746720676773e+01 0 0 0
280 2 1 1.7156574892168851e+02 1.7774645645221281e+00 1.8350047957114803e+01 0 0 0
281 1 1 1.8878273521572578e+02 2.7338060278766090e+01 1.4910255079277269e+01 0 -1 0
282 1 1 1.7525510313095089e+02 1.0674480148165666e+00 1.4910556313759933e+01 0 0 0
283 2 1 1.7156574892180959e+02 3.5743146901336725e-01 1.8349746733907480e+01 0 0 0
284 2 1 1.7402531839182268e+02 1.7774645644028342e+00 1.8350047969225209e+01 0 0 0
285 1 1 1.9124230468545881e+02 2.7338060278898990e+01 1.4910255089633262e+01 0 -1 0
286 1 1 1.7771467260067726e+02 1.0674480149428698e+00 1.4910556323058412e+01 0 0 0
287 2 1 1.7402531839195501e+02 3.5743146888960209e-01 1.8349746745503701e+01 0 0 0
288 2 1 1.7648488786196992e+02 1.7774645642803932e+00 1.8350047979736722e+01 0 0 0
289 1 1 1.9370187415518231e+02 2.7338060279030902e+01 1.4910255098400294e+01 0 -1 0
290 1 1 1.8017424207039900e+02 1.0674480150718850e+00 1.4910556330687548e+01 0 0 0
291 2 1 1.7648488786211325e+02 3.5743146876267712e-01 1.8349746755456724e+01 0 0 0
292 2 1 1.7894445733213584e+02 1.7774645641629250e+00 1.8350047988498098e+01 0 0 0
293 1 1 1.9616144362490178e+02 2.7338060279162679e+01 1.4910255105413679e+01 0 -1 0
294 1 1 1.8263381154011390e+02 1.0674480152047554e+00 1.4910556336384705e+01 0 0 0
295 2 1 1.7894445733228227e+02 3.5743146863974806e-01 1.8349746763602063e+01 0 0 0
296 2 1 1.8140402680231281e+02 1.7774645640382039e+00 1.8350047995353354e+01 0 0 0
297 1 1 1.9862101309461286e+02 2.7338060279300088e+01 1.4910255110413502e+01 0 -1 0
298 1 1 1.8509338100981688e+02 1.0674480153498191e+00 1.4910556339953287e+01 0 0 0
299 2 1 1.8140402680246120e+02 3.5743146851150820e-01 1.8349746769804078e+01 0 0 0
300 2 1 1.8386359627249468e+02 1.7774645639029101e+00 1.8350048000198509e+01 0 0 0
301 1 1 2.0108058256431553e+02 2.7338060279445173e+01 1.4910255113271466e+01 0 -1 0
302 1 1 1.8755295047951171e+02 1.0674480155058530e+00 1.4910556341414193e+01 0 0 0
303 2 1 1.8386359627264650e+02 3.5743146837374073e-01 1.8349746773980634e+01 0 0 0
304 2 1 1.8632316574268009e+02 1.7774645637635926e+00 1.8350048003035077e+01 0 0 0
305 1 1 2.0354015203400991e+02 2.7338060279603035e+01 1.4910255114068105e+01 0 -1 0
306 1 1 1.9001251994920327e+02 1.0674480156636166e+00 1.4910556340959602e+01 0 0 0
307 2 1 1.8632316574283348e+02 3.5743146823488747e-01 1.8349746776161091e+01 0 0 0
308 2 1 1.8878273521286769e+02 1.7774645636276774e+00 1.8350048003970205e+01 0 0 0
309 1 1 2.0599972150370346e+02 2.7338060279761585e+01 1.4910255113047313e+01 0 -1 0
310 1 1 1.9247208941890457e+02 1.0674480158234092e+00 1.4910556338936138e+01 0 0 0
311 2 1 1.8878273521301909e+02 3.5743146809876480e-01 1.8349746776483340e+01 0 0 0
312 2 1 1.9124230468305501e+02 1.7774645635040478e+00 1.8350048003122023e+01 0 0 0
313 1 1 2.0845929097341005e+02 2.7338060279917379e+01 1.4910255110564240e+01 0 -1 0
314 1 1 1.9493165888861697e+02 1.0674480159675654e+00 1.4910556335570648e+01 0 0 0
315 2 1 1.9124230468320340e+02 3.5743146798107406e-01 1.8349746775067118e+01 0 0 0
316 2 1 1.9370187415323375e+02 1.7774645633844111e+00 1.8350048000615583e+01 0 0 0
317 1 1 2.1091886044312972e+02 2.7338060280057821e+01 1.4910255106783755e+01 0 -1 0
318 1 1 1.9739122835833751e+02 1.0674480160897997e+00 1.4910556330932520e+01 0 0 0
319 2 1 1.9370187415337750e+02 3.5743146786270413e-01 1.8349746772065611e+01 0 0 0
320 2 1 1.9616144362339622e+02 1.7774645632633768e+00 1.8350047996677215e+01 0 0 0
321 1 1 2.1337842991285558e+02 2.7338060280174048e+01 1.4910255101732732e+01 0 -1 0
322 1 1 1.9985079782806451e+02 1.0674480162013023e+00 1.4910556324993552e+01 0 0 0
323 2 1 1.9616144362353094e+02 3.5743146774772094e-01 1.8349746767724056e+01 0 0 0
324 2 1 1.9862101309354176e+02 1.7774645631330510e+00 1.8350047991509044e+01 0 0 0
325 1 1 2.1583799938258571e+02 2.7338060280279986e+01 1.4910255095366992e+01 0 -1 0
326 1 1 2.0231036729780715e+02 1.0674480163155413e+00 1.4910556317729254e+01 0 0 0
327 2 1 1.9862101309366940e+02 3.5743146761983885e-01 1.8349746762175005e+01 0 0 0
328 2 1 2.0108058256367767e+02 1.7774645630120114e+00 1.8350047985154564e+01 0 0 0
329 1 1 2.1829756885233306e+02 2.7338060280386095e+01 1.4910255087684977e+01 0 -1 0
330 1 1 2.0476993676755663e+02 1.0674480164130913e+00 1.4910556309313970e+01 0 0 0
331 2 1 2.0108058256379121e+02 3.5743146750427146e-01 1.8349746755417193e+01 0 0 0
332 2 1 2.0354015203380570e+02 1.7774645629112731e+00 1.8350047977596667e+01 0 0 0
333 1 1 2.2075713832209132e+02 2.7338060280481535e+01 1.4910255078952439e+01 0 -1 0
334 1 1 2.0722950623731595e+02 1.0674480164839599e+00 1.4910556300018321e+01 0 0 0
335 2 1 2.0354015203390651e+02 3.5743146740747528e-01 1.8349746747464472e+01 0 0 0
336 2 1 2.0599972150391218e+02 1.7774645628157266e+00 1.8350047968874584e+01 0 0 0
337 1 1 2.2321670779186209e+02 2.7338060280545978e+01 1.4910255069449621e+01 0 -1 0
338 1 1 2.0968907570708677e+02 1.0674480165221278e+00 1.4910556290071391e+01 0 0 0
339 2 1 2.0599972150400822e+02 3.5743146731662317e-01 1.8349746738428514e+01 0 0 0
340 2 1 2.0845929097399778e+02 1.7774645627074890e+00 1.8350047959237116e+01 0 0 0
341 1 1 2.2567627726164199e+02 2.7338060280579423e+01 1.4910255059374263e+01 0 -1 0
342 1 1 2.1214864517687005e+02 1.0674480165494347e+00 1.4910556279714115e+01 0 0 0
343 2 1 2.0845929097408222e+02 3.5743146721324909e-01 1.8349746728604394e+01 0 0 0
344 2 1 2.1091886044406775e+02 1.7774645626013992e+00 1.8350047949087898e+01 0 0 0
345 1 1 2.2813584673143282e+02 2.7338060280603905e+01 1.4910255048944844e+01 0 -1 0
346 1 1 2.1460821464666742e+02 1.0674480165837685e+00 1.4910556269136995e+01 0 0 0
347 2 1 2.1091886044413951e+02 3.5743146711228951e-01 1.8349746718366646e+01 0 0 0
348 2 1 2.1337842991411961e+02 1.7774645624997161e+00 1.8350047938664687e+01 0 0 0
349 1 1 2.3059541620123889e+02 2.7338060280630888e+01 1.4910255038295503e+01 0 -1 0
350 1 1 2.1706778411648659e+02 1.0674480166149964e+00 1.4910556258456188e+01 0 0 0
351 2 1 2.1337842991418108e+02 3.5743146701537987e-01 1.8349746707868935e+01 0 0 0
352 2 1 2.1583799938416246e+02 1.7774645624111780e+00 1.8350047928082091e+01 0 0 0
353 1 1 2.3305498567106687e+02 2.7338060280654329e+01 1.4910255027517362e+01 0 -1 0
354 1 1 2.1952735358632592e+02 1.0674480166359859e+00 1.4910556247637185e+01 0 0 0
355 2 1 2.1583799938421046e+02 3.5743146693167521e-01 1.8349746697186212e+01 0 0 0
356 2 1 2.1829756885418632e+02 1.7774645623372962e+00 1.8350047917394168e+01 0 0 0
357 1 1 2.3551455514091614e+02 2.7338060280668255e+01 1.4910255016564767e+01 0 -1 0