LAMMPS data file via write_data, version 7 Jan 2022, timestep = 0

12322 atoms
3 atom types

0 138.1559996868 xlo xhi
0 119.6466056754 ylo yhi
0 100 zlo zhi
-69.0779993906 0 0 xy xz yz

Masses

1 10.811
2 14.0067
3 12.0107

Atoms # full

1 1 1 0.42 -65.37739249719999 117.51005915229996 15 1 -1 0
2 1 2 -0.42 -67.84446390680007 118.9344234931 15 1 -1 0
3 1 1 0.42 70.31153577459995 117.51005915229996 15 0 -1 0
4 1 2 -0.42 67.84446436489999 118.9344234931 15 0 -1 0
5 1 1 0.42 67.84446434569995 117.51005915229996 15 0 -1 0
6 1 2 -0.42 65.37739294980001 118.9344234931 15 0 -1 0
7 1 1 0.42 65.37739293059997 117.51005915229996 15 0 -1 0
8 1 2 -0.42 62.91032152090001 118.9344234931 15 0 -1 0
9 1 1 0.42 62.91032151549995 117.51005915229996 15 0 -1 0
10 1 2 -0.42 60.443250105800004 118.9344234931 15 0 -1 0
11 1 1 0.42 60.443250086599924 117.51005915229996 15 0 -1 0
12 1 2 -0.42 57.97617869069991 118.9344234931 15 0 -1 0
13 1 1 0.42 57.97617867149993 117.51005915229996 15 0 -1 0
14 1 2 -0.42 55.50910726179991 118.9344234931 15 0 -1 0
15 1 1 0.42 55.509107256399936 117.51005915229996 15 0 -1 0
16 1 2 -0.42 53.04203584669992 118.9344234931 15 0 -1 0
17 1 1 0.42 53.042035841399986 117.51005915229996 15 0 -1 0
18 1 2 -0.42 50.57496443169991 118.9344234931 15 0 -1 0
19 1 1 0.42 50.57496441249997 117.51005915229996 15 0 -1 0
20 1 2 -0.42 48.10789301659992 118.9344234931 15 0 -1 0
21 1 1 0.42 48.10789299739998 117.51005915229996 15 0 -1 0
22 1 2 -0.42 45.64082158769992 118.9344234931 15 0 -1 0
23 1 1 0.42 45.640821582299985 117.51005915229996 15 0 -1 0
24 1 2 -0.42 43.17375017259991 118.9344234931 15 0 -1 0
25 1 1 0.42 43.173750153399986 117.51005915229996 15 0 -1 0
26 1 2 -0.42 40.706678757499915 118.9344234931 15 0 -1 0
27 1 1 0.42 40.70667873829998 117.51005915229996 15 0 -1 0
28 1 2 -0.42 38.23960732859992 118.9344234931 15 0 -1 0
29 1 1 0.42 38.239607323199984 117.51005915229996 15 0 -1 0
30 1 2 -0.42 35.77253591349992 118.9344234931 15 0 -1 0
31 1 1 0.42 35.772535908099975 117.51005915229996 15 0 -1 0
32 1 2 -0.42 33.305464498399914 118.9344234931 15 0 -1 0
33 1 1 0.42 33.305464479199976 117.51005915229996 15 0 -1 0
34 1 2 -0.42 30.83839308340001 118.9344234931 15 0 -1 0
35 1 1 0.42 30.838393064199956 117.51005915229996 15 0 -1 0
36 1 2 -0.42 28.37132165450001 118.9344234931 15 0 -1 0
37 1 1 0.42 28.371321649099976 117.51005915229996 15 0 -1 0
38 1 2 -0.42 25.904250239400003 118.9344234931 15 0 -1 0
39 1 1 0.42 25.90425023399998 117.51005915229996 15 0 -1 0
40 1 2 -0.42 23.43717882430001 118.9344234931 15 0 -1 0
41 1 1 0.42 23.43717880509997 117.51005915229996 15 0 -1 0
42 1 2 -0.42 20.970107409199915 118.9344234931 15 0 -1 0
43 1 1 0.42 20.970107389999974 117.51005915229996 15 0 -1 0
44 1 2 -0.42 18.5030359803 118.9344234931 15 0 -1 0
45 1 1 0.42 18.50303597489998 117.51005915229996 15 0 -1 0
46 1 2 -0.42 16.035964565200008 118.9344234931 15 0 -1 0
47 1 1 0.42 16.035964545999967 117.51005915229996 15 0 -1 0
48 1 2 -0.42 13.568893150099914 118.9344234931 15 0 -1 0
49 1 1 0.42 13.568893130899989 117.51005915229996 15 0 -1 0
50 1 2 -0.42 11.1018217212 118.9344234931 15 0 -1 0
51 1 1 0.42 11.101821715899968 117.51005915229996 15 0 -1 0
52 1 2 -0.42 8.634750306199994 118.9344234931 15 0 -1 0
53 1 1 0.42 8.634750300799974 117.51005915229996 15 0 -1 0
54 1 2 -0.42 6.1676788911 118.9344234931 15 0 -1 0
55 1 1 0.42 6.1676788718999465 117.51005915229996 15 0 -1 0
56 1 2 -0.42 3.700607476000005 118.9344234931 15 0 -1 0
57 1 1 0.42 3.700607456799966 117.51005915229996 15 0 -1 0
58 1 2 -0.42 1.233536047099992 118.9344234931 15 0 -1 0
59 1 1 0.42 1.233536041699986 117.51005915229996 15 0 -1 0
60 1 2 -0.42 -1.2335353680000447 118.9344234931 15 0 -1 0
61 1 1 0.42 -1.2335353872000128 117.51005915229996 15 0 -1 0
62 1 2 -0.42 -3.7006067831000817 118.9344234931 15 0 -1 0
63 1 1 0.42 -3.700606802300021 117.51005915229996 15 0 -1 0
64 1 2 -0.42 -6.167678212000059 118.9344234931 15 0 -1 0
65 1 1 0.42 -6.167678217400015 117.51005915229996 15 0 -1 0
66 1 2 -0.42 -8.634749627000037 118.9344234931 15 0 -1 0
67 1 1 0.42 -8.634749632400021 117.51005915229996 15 0 -1 0
68 1 2 -0.42 -11.101821042100038 118.9344234931 15 0 -1 0
69 1 1 0.42 -11.101821061300027 117.51005915229996 15 0 -1 0
70 1 2 -0.42 -13.568892457200047 118.9344234931 15 0 -1 0
71 1 1 0.42 -13.568892476400022 117.51005915229996 15 0 -1 0
72 1 2 -0.42 -16.03596388610004 118.9344234931 15 0 -1 0
73 1 1 0.42 -16.035963891500025 117.51005915229996 15 0 -1 0
74 1 2 -0.42 -18.50303530120004 118.9344234931 15 0 -1 0
75 1 1 0.42 -18.50303530660001 117.51005915229996 15 0 -1 0
76 1 2 -0.42 -20.970106716300048 118.9344234931 15 0 -1 0
77 1 1 0.42 -20.970106735500032 117.51005915229996 15 0 -1 0
78 1 2 -0.42 -23.43717813140005 118.9344234931 15 0 -1 0
79 1 1 0.42 -23.437178150600026 117.51005915229996 15 0 -1 0
80 1 2 -0.42 -25.90424956030004 118.9344234931 15 0 -1 0
81 1 1 0.42 -25.904249565700013 117.51005915229996 15 0 -1 0
82 1 2 -0.42 -28.371320975300055 118.9344234931 15 0 -1 0
83 1 1 0.42 -28.371320994600033 117.51005915229996 15 0 -1 0
84 1 2 -0.42 -30.838392390400042 118.9344234931 15 0 -1 0
85 1 1 0.42 -30.83839240960002 117.51005915229996 15 0 -1 0
86 1 2 -0.42 -33.30546381930008 118.9344234931 15 0 -1 0
87 1 1 0.42 -33.305463824700034 117.51005915229996 15 0 -1 0
88 1 2 -0.42 -35.772535234400074 118.9344234931 15 0 -1 0
89 1 1 0.42 -35.772535239800035 117.51005915229996 15 0 -1 0
90 1 2 -0.42 -38.23960664950005 118.9344234931 15 0 -1 0
91 1 1 0.42 -38.2396066687 117.51005915229996 15 0 -1 0
92 1 2 -0.42 -40.70667806460004 118.9344234931 15 0 -1 0
93 1 1 0.42 -40.7066780838 117.51005915229996 15 0 -1 0
94 1 2 -0.42 -43.173749493500054 118.9344234931 15 0 -1 0
95 1 1 0.42 -43.17374949890002 117.51005915229996 15 0 -1 0
96 1 2 -0.42 -45.64082090860005 118.9344234931 15 0 -1 0
97 1 1 0.42 -45.6408209278 117.51005915229996 15 0 -1 0
98 1 2 -0.42 -48.10789232360005 118.9344234931 15 0 -1 0
99 1 1 0.42 -48.1078923428 117.51005915229996 15 0 -1 0
100 1 2 -0.42 -50.57496375250005 118.9344234931 15 0 -1 0
101 1 1 0.42 -50.574963757899994 117.51005915229996 15 0 -1 0
102 1 2 -0.42 -53.04203516760004 118.9344234931 15 0 -1 0
103 1 1 0.42 -53.04203517300002 117.51005915229996 15 0 -1 0
104 1 2 -0.42 -55.50910658270004 118.9344234931 15 0 -1 0
105 1 1 0.42 -55.5091066019 117.51005915229996 15 0 -1 0
106 1 2 -0.42 -57.976177997800036 118.9344234931 15 0 -1 0
107 1 1 0.42 -57.97617801700001 117.51005915229996 15 0 -1 0
108 1 2 -0.42 -60.44324942670004 118.9344234931 15 0 -1 0
109 1 1 0.42 -60.443249432100004 117.51005915229996 15 0 -1 0
110 1 2 -0.42 -62.910320841800036 118.9344234931 15 0 -1 0
111 1 1 0.42 -62.91032084720001 117.51005915229996 15 0 -1 0
112 1 2 -0.42 -65.37739225690007 118.9344234931 15 0 -1 0
113 1 1 0.42 2.4670711940000056 0 15 1 0 0
114 1 2 -0.42 -2.2259998528854476e-07 1.4243643527 15 1 0 0
115 1 1 0.42 138.1559994657 0 15 0 0 0
116 1 2 -0.42 135.6889280491 1.4243643527 15 0 0 0
117 1 1 0.42 135.6889280368 0 15 0 0 0
118 1 2 -0.42 133.221856634 1.4243643527 15 0 0 0
119 1 1 0.42 133.2218566217 0 15 0 0 0
120 1 2 -0.42 130.7547852051 1.4243643527 15 0 0 0
121 1 1 0.42 130.7547852066 0 15 0 0 0
122 1 2 -0.42 128.28771379 1.4243643527 15 0 0 0
123 1 1 0.42 128.2877137777 0 15 0 0 0
124 1 2 -0.42 125.82064237499992 1.4243643527 15 0 0 0
125 1 1 0.42 125.8206423627 0 15 0 0 0
126 1 2 -0.42 123.3535709461 1.4243643527 15 0 0 0
127 1 1 0.42 123.3535709476 0 15 0 0 0
128 1 2 -0.42 120.88649953099991 1.4243643527 15 0 0 0
129 1 1 0.42 120.8864995325 0 15 0 0 0
130 1 2 -0.42 118.41942811589992 1.4243643527 15 0 0 0
131 1 1 0.42 118.4194281036 0 15 0 0 0
132 1 2 -0.42 115.95235670079991 1.4243643527 15 0 0 0
133 1 1 0.42 115.9523566885 0 15 0 0 0
134 1 2 -0.42 113.48528527189991 1.4243643527 15 0 0 0
135 1 1 0.42 113.4852852734 0 15 0 0 0
136 1 2 -0.42 111.01821385679992 1.4243643527 15 0 0 0
137 1 1 0.42 111.0182138445 0 15 0 0 0
138 1 2 -0.42 108.55114244169991 1.4243643527 15 0 0 0
139 1 1 0.42 108.5511424294 0 15 0 0 0
140 1 2 -0.42 106.08407101279991 1.4243643527 15 0 0 0
141 1 1 0.42 106.0840710144 0 15 0 0 0
142 1 2 -0.42 103.6169995978 1.4243643527 15 0 0 0
143 1 1 0.42 103.6169995993 0 15 0 0 0
144 1 2 -0.42 101.1499281827 1.4243643527 15 0 0 0
145 1 1 0.42 101.1499281704 0 15 0 0 0
146 1 2 -0.42 98.6828567676 1.4243643527 15 0 0 0
147 1 1 0.42 98.6828567553 0 15 0 0 0
148 1 2 -0.42 96.2157853387 1.4243643527 15 0 0 0
149 1 1 0.42 96.2157853402 0 15 0 0 0
150 1 2 -0.42 93.7487139236 1.4243643527 15 0 0 0
151 1 1 0.42 93.7487139251 0 15 0 0 0
152 1 2 -0.42 91.2816425085 1.4243643527 15 0 0 0
153 1 1 0.42 91.2816424962 0 15 0 0 0
154 1 2 -0.42 88.81457109339992 1.4243643527 15 0 0 0
155 1 1 0.42 88.8145710812 0 15 0 0 0
156 1 2 -0.42 86.3474996645 1.4243643527 15 0 0 0
157 1 1 0.42 86.3474996661 0 15 0 0 0
158 1 2 -0.42 83.8804282495 1.4243643527 15 0 0 0
159 1 1 0.42 83.8804282372 0 15 0 0 0
160 1 2 -0.42 81.4133568344 1.4243643527 15 0 0 0
161 1 1 0.42 81.4133568221 0 15 0 0 0
162 1 2 -0.42 78.94628540549999 1.4243643527 15 0 0 0
163 1 1 0.42 78.946285407 0 15 0 0 0
164 1 2 -0.42 76.4792139904 1.4243643527 15 0 0 0
165 1 1 0.42 76.4792139919 0 15 0 0 0
166 1 2 -0.42 74.0121425753 1.4243643527 15 0 0 0
167 1 1 0.42 74.012142563 0 15 0 0 0
168 1 2 -0.42 71.5450711602 1.4243643527 15 0 0 0
169 1 1 0.42 71.5450711479 0 15 0 0 0
170 1 2 -0.42 69.0779997313 1.4243643527 15 0 0 0
171 1 1 0.42 69.0779997329 0 15 0 0 0
172 1 2 -0.42 66.6109283163 1.4243643527 15 0 0 0
173 1 1 0.42 66.610928304 0 15 0 0 0
174 1 2 -0.42 64.14385690119994 1.4243643527 15 0 0 0
175 1 1 0.42 64.1438568889 0 15 0 0 0
176 1 2 -0.42 61.6767854723 1.4243643527 15 0 0 0
177 1 1 0.42 61.6767854738 0 15 0 0 0
178 1 2 -0.42 59.2097140572 1.4243643527 15 0 0 0
179 1 1 0.42 59.2097140587 0 15 0 0 0
180 1 2 -0.42 56.7426426421 1.4243643527 15 0 0 0
181 1 1 0.42 56.7426426298 0 15 0 0 0
182 1 2 -0.42 54.275571227 1.4243643527 15 0 0 0
183 1 1 0.42 54.2755712147 0 15 0 0 0
184 1 2 -0.42 51.8084997981 1.4243643527 15 0 0 0
185 1 1 0.42 51.8084997996 0 15 0 0 0
186 1 2 -0.42 49.341428383 1.4243643527 15 0 0 0
187 1 1 0.42 49.3414283846 0 15 0 0 0
188 1 2 -0.42 46.874356968 1.4243643527 15 0 0 0
189 1 1 0.42 46.87435695569999 0 15 0 0 0
190 1 2 -0.42 44.4072855529 1.4243643527 15 0 0 0
191 1 1 0.42 44.4072855406 0 15 0 0 0
192 1 2 -0.42 41.940214124 1.4243643527 15 0 0 0
193 1 1 0.42 41.9402141255 0 15 0 0 0
194 1 2 -0.42 39.4731427089 1.4243643527 15 0 0 0
195 1 1 0.42 39.47314269659999 0 15 0 0 0
196 1 2 -0.42 37.0060712938 1.4243643527 15 0 0 0
197 1 1 0.42 37.0060712815 0 15 0 0 0
198 1 2 -0.42 34.5389998649 1.4243643527 15 0 0 0
199 1 1 0.42 34.5389998664 0 15 0 0 0
200 1 2 -0.42 32.0719284498 1.4243643527 15 0 0 0
201 1 1 0.42 32.0719284513 0 15 0 0 0
202 1 2 -0.42 29.6048570347 1.4243643527 15 0 0 0
203 1 1 0.42 29.604857022399987 0 15 0 0 0
204 1 2 -0.42 27.1377856197 1.4243643527 15 0 0 0
205 1 1 0.42 27.137785607399994 0 15 0 0 0
206 1 2 -0.42 24.67071419079998 1.4243643527 15 0 0 0
207 1 1 0.42 24.6707141923 0 15 0 0 0
208 1 2 -0.42 22.203642775699997 1.4243643527 15 0 0 0
209 1 1 0.42 22.2036427634 0 15 0 0 0
210 1 2 -0.42 19.7365713606 1.4243643527 15 0 0 0
211 1 1 0.42 19.736571348299996 0 15 0 0 0
212 1 2 -0.42 17.269499931699983 1.4243643527 15 0 0 0
213 1 1 0.42 17.2694999332 0 15 0 0 0
214 1 2 -0.42 14.8024285166 1.4243643527 15 0 0 0
215 1 1 0.42 14.8024285181 0 15 0 0 0
216 1 2 -0.42 12.3353571015 1.4243643527 15 0 0 0
217 1 1 0.42 12.3353570892 0 15 0 0 0
218 1 2 -0.42 9.8682856864 1.4243643527 15 0 0 0
219 1 1 0.42 9.8682856741 0 15 0 0 0
220 1 2 -0.42 7.4012142574999995 1.4243643527 15 0 0 0
221 1 1 0.42 7.4012142591 0 15 0 0 0
222 1 2 -0.42 4.9341428425 1.4243643527 15 0 0 0
223 1 1 0.42 4.934142844 0 15 0 0 0
224 1 2 -0.42 2.4670714274 1.4243643527 15 0 0 0
225 1 1 0.42 1.2335354945000245 2.1365465231 15 1 0 0
226 1 2 -0.42 -1.2335359220999664 3.5609108757999985 15 1 0 0
227 1 1 0.42 136.9224637663 2.1365465231 15 0 0 0
228 1 2 -0.42 134.4553923497 3.5609108757999985 15 0 0 0
229 1 1 0.42 134.4553923374 2.1365465231 15 0 0 0
230 1 2 -0.42 131.9883209346 3.5609108757999985 15 0 0 0
231 1 1 0.42 131.9883209223 2.1365465231 15 0 0 0
232 1 2 -0.42 129.5212495057 3.5609108757999985 15 0 0 0
233 1 1 0.42 129.5212495072 2.1365465231 15 0 0 0
234 1 2 -0.42 127.05417809060002 3.5609108757999985 15 0 0 0
235 1 1 0.42 127.05417807829998 2.1365465231 15 0 0 0
236 1 2 -0.42 124.5871066755 3.5609108757999985 15 0 0 0
237 1 1 0.42 124.5871066632 2.1365465231 15 0 0 0
238 1 2 -0.42 122.1200352466 3.5609108757999985 15 0 0 0
239 1 1 0.42 122.12003524809991 2.1365465231 15 0 0 0
240 1 2 -0.42 119.6529638315 3.5609108757999985 15 0 0 0
241 1 1 0.42 119.65296383299992 2.1365465231 15 0 0 0
242 1 2 -0.42 117.1858924164 3.5609108757999985 15 0 0 0
243 1 1 0.42 117.1858924041 2.1365465231 15 0 0 0
244 1 2 -0.42 114.7188210014 3.5609108757999985 15 0 0 0
245 1 1 0.42 114.7188209891 2.1365465231 15 0 0 0
246 1 2 -0.42 112.2517495725 3.5609108757999985 15 0 0 0
247 1 1 0.42 112.251749574 2.1365465231 15 0 0 0
248 1 2 -0.42 109.7846781574 3.5609108757999985 15 0 0 0
249 1 1 0.42 109.7846781451 2.1365465231 15 0 0 0
250 1 2 -0.42 107.3176067423 3.5609108757999985 15 0 0 0
251 1 1 0.42 107.31760673 2.1365465231 15 0 0 0
252 1 2 -0.42 104.8505353134 3.5609108757999985 15 0 0 0
253 1 1 0.42 104.8505353149 2.1365465231 15 0 0 0
254 1 2 -0.42 102.3834638983 3.5609108757999985 15 0 0 0
255 1 1 0.42 102.3834638998 2.1365465231 15 0 0 0
256 1 2 -0.42 99.9163924832 3.5609108757999985 15 0 0 0
257 1 1 0.42 99.9163924709 2.1365465231 15 0 0 0
258 1 2 -0.42 97.4493210681 3.5609108757999985 15 0 0 0
259 1 1 0.42 97.4493210558 2.1365465231 15 0 0 0
260 1 2 -0.42 94.9822496392 3.5609108757999985 15 0 0 0
261 1 1 0.42 94.9822496408 2.1365465231 15 0 0 0
262 1 2 -0.42 92.51517822420001 3.5609108757999985 15 0 0 0
263 1 1 0.42 92.5151782257 2.1365465231 15 0 0 0
264 1 2 -0.42 90.04810680910003 3.5609108757999985 15 0 0 0
265 1 1 0.42 90.0481067968 2.1365465231 15 0 0 0
266 1 2 -0.42 87.581035394 3.5609108757999985 15 0 0 0
267 1 1 0.42 87.5810353817 2.1365465231 15 0 0 0
268 1 2 -0.42 85.11396396510003 3.5609108757999985 15 0 0 0
269 1 1 0.42 85.1139639666 2.1365465231 15 0 0 0
270 1 2 -0.42 82.64689255000003 3.5609108757999985 15 0 0 0
271 1 1 0.42 82.6468925377 2.1365465231 15 0 0 0
272 1 2 -0.42 80.1798211349 3.5609108757999985 15 0 0 0
273 1 1 0.42 80.1798211226 2.1365465231 15 0 0 0
274 1 2 -0.42 77.71274970600003 3.5609108757999985 15 0 0 0
275 1 1 0.42 77.7127497075 2.1365465231 15 0 0 0
276 1 2 -0.42 75.24567829090003 3.5609108757999985 15 0 0 0
277 1 1 0.42 75.2456782925 2.1365465231 15 0 0 0
278 1 2 -0.42 72.7786068759 3.5609108757999985 15 0 0 0
279 1 1 0.42 72.77860686359998 2.1365465231 15 0 0 0
280 1 2 -0.42 70.31153546080002 3.5609108757999985 15 0 0 0
281 1 1 0.42 70.31153544849998 2.1365465231 15 0 0 0
282 1 2 -0.42 67.8444640319 3.5609108757999985 15 0 0 0
283 1 1 0.42 67.8444640334 2.1365465231 15 0 0 0
284 1 2 -0.42 65.3773926168 3.5609108757999985 15 0 0 0
285 1 1 0.42 65.3773926045 2.1365465231 15 0 0 0
286 1 2 -0.42 62.91032120169999 3.5609108757999985 15 0 0 0
287 1 1 0.42 62.910321189399994 2.1365465231 15 0 0 0
288 1 2 -0.42 60.4432497728 3.5609108757999985 15 0 0 0
289 1 1 0.42 60.44324977429996 2.1365465231 15 0 0 0
290 1 2 -0.42 57.9761783577 3.5609108757999985 15 0 0 0
291 1 1 0.42 57.97617835919998 2.1365465231 15 0 0 0
292 1 2 -0.42 55.509106942599956 3.5609108757999985 15 0 0 0
293 1 1 0.42 55.50910693039999 2.1365465231 15 0 0 0
294 1 2 -0.42 53.0420355276 3.5609108757999985 15 0 0 0
295 1 1 0.42 53.0420355153 2.1365465231 15 0 0 0
296 1 2 -0.42 50.57496409869998 3.5609108757999985 15 0 0 0
297 1 1 0.42 50.5749641002 2.1365465231 15 0 0 0
298 1 2 -0.42 48.10789268359999 3.5609108757999985 15 0 0 0
299 1 1 0.42 48.1078926851 2.1365465231 15 0 0 0
300 1 2 -0.42 45.6408212685 3.5609108757999985 15 0 0 0
301 1 1 0.42 45.6408212562 2.1365465231 15 0 0 0
302 1 2 -0.42 43.1737498534 3.5609108757999985 15 0 0 0
303 1 1 0.42 43.1737498411 2.1365465231 15 0 0 0
304 1 2 -0.42 40.7066784245 3.5609108757999985 15 0 0 0
305 1 1 0.42 40.706678426 2.1365465231 15 0 0 0
306 1 2 -0.42 38.2396070094 3.5609108757999985 15 0 0 0
307 1 1 0.42 38.2396069971 2.1365465231 15 0 0 0
308 1 2 -0.42 35.77253559439997 3.5609108757999985 15 0 0 0
309 1 1 0.42 35.77253558209997 2.1365465231 15 0 0 0
310 1 2 -0.42 33.3054641655 3.5609108757999985 15 0 0 0
311 1 1 0.42 33.305464167 2.1365465231 15 0 0 0
312 1 2 -0.42 30.838392750399983 3.5609108757999985 15 0 0 0
313 1 1 0.42 30.8383927519 2.1365465231 15 0 0 0
314 1 2 -0.42 28.3713213353 3.5609108757999985 15 0 0 0
315 1 1 0.42 28.371321322999997 2.1365465231 15 0 0 0
316 1 2 -0.42 25.9042499202 3.5609108757999985 15 0 0 0
317 1 1 0.42 25.9042499079 2.1365465231 15 0 0 0
318 1 2 -0.42 23.43717849129999 3.5609108757999985 15 0 0 0
319 1 1 0.42 23.4371784928 2.1365465231 15 0 0 0
320 1 2 -0.42 20.9701070762 3.5609108757999985 15 0 0 0
321 1 1 0.42 20.970107063900002 2.1365465231 15 0 0 0
322 1 2 -0.42 18.5030356611 3.5609108757999985 15 0 0 0
323 1 1 0.42 18.5030356488 2.1365465231 15 0 0 0
324 1 2 -0.42 16.03596423219999 3.5609108757999985 15 0 0 0
325 1 1 0.42 16.0359642338 2.1365465231 15 0 0 0
326 1 2 -0.42 13.568892817199998 3.5609108757999985 15 0 0 0
327 1 1 0.42 13.568892818699998 2.1365465231 15 0 0 0
328 1 2 -0.42 11.101821402099999 3.5609108757999985 15 0 0 0
329 1 1 0.42 11.101821389799998 2.1365465231 15 0 0 0
330 1 2 -0.42 8.634749987 3.5609108757999985 15 0 0 0
331 1 1 0.42 8.63474997469999 2.1365465231 15 0 0 0
332 1 2 -0.42 6.167678558099997 3.5609108757999985 15 0 0 0
333 1 1 0.42 6.1676785596 2.1365465231 15 0 0 0
334 1 2 -0.42 3.7006071430000005 3.5609108757999985 15 0 0 0
335 1 1 0.42 3.7006071445 2.1365465231 15 0 0 0
336 1 2 -0.42 1.233535727899999 3.5609108757999985 15 0 0 0
337 1 1 0.42 -2.1179999406647105e-07 4.2730930581 15 1 0 0
338 1 2 -0.42 -2.467071621500003 5.6974573989 15 1 0 0
339 1 1 0.42 135.6889280599 4.2730930581 15 0 0 0
340 1 2 -0.42 133.2218566502 5.6974573989 15 0 0 0
341 1 1 0.42 133.221856631 4.2730930581 15 0 0 0
342 1 2 -0.42 130.7547852351 5.6974573989 15 0 0 0
343 1 1 0.42 130.7547852159 4.2730930581 15 0 0 0
344 1 2 -0.42 128.2877138062 5.6974573989 15 0 0 0
345 1 1 0.42 128.2877138008 4.2730930581 15 0 0 0
346 1 2 -0.42 125.8206423911 5.6974573989 15 0 0 0
347 1 1 0.42 125.8206423719 4.2730930581 15 0 0 0
348 1 2 -0.42 123.353570976 5.6974573989 15 0 0 0
349 1 1 0.42 123.35357095679991 4.2730930581 15 0 0 0
350 1 2 -0.42 120.8864995471 5.6974573989 15 0 0 0
351 1 1 0.42 120.8864995418 4.2730930581 15 0 0 0
352 1 2 -0.42 118.4194281321 5.6974573989 15 0 0 0
353 1 1 0.42 118.4194281267 4.2730930581 15 0 0 0
354 1 2 -0.42 115.952356717 5.6974573989 15 0 0 0
355 1 1 0.42 115.9523566978 4.2730930581 15 0 0 0
356 1 2 -0.42 113.4852853019 5.6974573989 15 0 0 0
357 1 1 0.42 113.4852852827 4.2730930581 15 0 0 0
358 1 2 -0.42 111.018213873 5.6974573989 15 0 0 0
359 1 1 0.42 111.0182138676 4.2730930581 15 0 0 0
360 1 2 -0.42 108.5511424579 5.6974573989 15 0 0 0
361 1 1 0.42 108.5511424387 4.2730930581 15 0 0 0
362 1 2 -0.42 106.0840710428 5.6974573989 15 0 0 0
363 1 1 0.42 106.0840710236 4.2730930581 15 0 0 0
364 1 2 -0.42 103.6169996139 5.6974573989 15 0 0 0
365 1 1 0.42 103.6169996085 4.2730930581 15 0 0 0
366 1 2 -0.42 101.1499281989 5.6974573989 15 0 0 0
367 1 1 0.42 101.1499281935 4.2730930581 15 0 0 0
368 1 2 -0.42 98.6828567838 5.6974573989 15 0 0 0
369 1 1 0.42 98.6828567646 4.2730930581 15 0 0 0
370 1 2 -0.42 96.2157853687 5.6974573989 15 0 0 0
371 1 1 0.42 96.2157853495 4.2730930581 15 0 0 0
372 1 2 -0.42 93.7487139398 5.6974573989 15 0 0 0
373 1 1 0.42 93.7487139344 4.2730930581 15 0 0 0
374 1 2 -0.42 91.2816425247 5.6974573989 15 0 0 0
375 1 1 0.42 91.2816425193 4.2730930581 15 0 0 0
376 1 2 -0.42 88.8145711096 5.6974573989 15 0 0 0
377 1 1 0.42 88.8145710904 4.2730930581 15 0 0 0
378 1 2 -0.42 86.3474996945 5.6974573989 15 0 0 0
379 1 1 0.42 86.3474996753 4.2730930581 15 0 0 0
380 1 2 -0.42 83.8804282656 5.6974573989 15 0 0 0
381 1 1 0.42 83.8804282602 4.2730930581 15 0 0 0
382 1 2 -0.42 81.41335685060001 5.6974573989 15 0 0 0
383 1 1 0.42 81.4133568313 4.2730930581 15 0 0 0
384 1 2 -0.42 78.94628543550002 5.6974573989 15 0 0 0
385 1 1 0.42 78.94628541629999 4.2730930581 15 0 0 0
386 1 2 -0.42 76.4792140066 5.6974573989 15 0 0 0
387 1 1 0.42 76.47921400119999 4.2730930581 15 0 0 0
388 1 2 -0.42 74.01214259150001 5.6974573989 15 0 0 0
389 1 1 0.42 74.0121425861 4.2730930581 15 0 0 0
390 1 2 -0.42 71.54507117640003 5.6974573989 15 0 0 0
391 1 1 0.42 71.54507115719998 4.2730930581 15 0 0 0
392 1 2 -0.42 69.07799976130003 5.6974573989 15 0 0 0
393 1 1 0.42 69.07799974209999 4.2730930581 15 0 0 0
394 1 2 -0.42 66.61092833240001 5.6974573989 15 0 0 0
395 1 1 0.42 66.610928327 4.2730930581 15 0 0 0
396 1 2 -0.42 64.1438569173 5.6974573989 15 0 0 0
397 1 1 0.42 64.1438568981 4.2730930581 15 0 0 0
398 1 2 -0.42 61.6767855023 5.6974573989 15 0 0 0
399 1 1 0.42 61.67678548309999 4.2730930581 15 0 0 0
400 1 2 -0.42 59.209714073399994 5.6974573989 15 0 0 0
401 1 1 0.42 59.209714068 4.2730930581 15 0 0 0
402 1 2 -0.42 56.7426426583 5.6974573989 15 0 0 0
403 1 1 0.42 56.7426426529 4.2730930581 15 0 0 0
404 1 2 -0.42 54.2755712432 5.6974573989 15 0 0 0
405 1 1 0.42 54.275571224 4.2730930581 15 0 0 0
406 1 2 -0.42 51.808499828099954 5.6974573989 15 0 0 0
407 1 1 0.42 51.8084998089 4.2730930581 15 0 0 0
408 1 2 -0.42 49.3414283992 5.6974573989 15 0 0 0
409 1 1 0.42 49.3414283938 4.2730930581 15 0 0 0
410 1 2 -0.42 46.8743569841 5.6974573989 15 0 0 0
411 1 1 0.42 46.87435697869996 4.2730930581 15 0 0 0
412 1 2 -0.42 44.40728556899996 5.6974573989 15 0 0 0
413 1 1 0.42 44.4072855498 4.2730930581 15 0 0 0
414 1 2 -0.42 41.940214153999996 5.6974573989 15 0 0 0
415 1 1 0.42 41.94021413479997 4.2730930581 15 0 0 0
416 1 2 -0.42 39.473142725099976 5.6974573989 15 0 0 0
417 1 1 0.42 39.473142719699986 4.2730930581 15 0 0 0
418 1 2 -0.42 37.00607130999999 5.6974573989 15 0 0 0
419 1 1 0.42 37.006071290799966 4.2730930581 15 0 0 0
420 1 2 -0.42 34.5389998949 5.6974573989 15 0 0 0
421 1 1 0.42 34.53899987569998 4.2730930581 15 0 0 0
422 1 2 -0.42 32.071928465999974 5.6974573989 15 0 0 0
423 1 1 0.42 32.0719284606 4.2730930581 15 0 0 0
424 1 2 -0.42 29.604857050900005 5.6974573989 15 0 0 0
425 1 1 0.42 29.604857045499983 4.2730930581 15 0 0 0
426 1 2 -0.42 27.1377856358 5.6974573989 15 0 0 0
427 1 1 0.42 27.137785616599977 4.2730930581 15 0 0 0
428 1 2 -0.42 24.670714220699995 5.6974573989 15 0 0 0
429 1 1 0.42 24.67071420149998 4.2730930581 15 0 0 0
430 1 2 -0.42 22.2036427918 5.6974573989 15 0 0 0
431 1 1 0.42 22.20364278649998 4.2730930581 15 0 0 0
432 1 2 -0.42 19.7365713768 5.6974573989 15 0 0 0
433 1 1 0.42 19.7365713576 4.2730930581 15 0 0 0
434 1 2 -0.42 17.2694999617 5.6974573989 15 0 0 0
435 1 1 0.42 17.26949994249998 4.2730930581 15 0 0 0
436 1 2 -0.42 14.8024285328 5.6974573989 15 0 0 0
437 1 1 0.42 14.802428527399998 4.2730930581 15 0 0 0
438 1 2 -0.42 12.3353571177 5.6974573989 15 0 0 0
439 1 1 0.42 12.3353571123 4.2730930581 15 0 0 0
440 1 2 -0.42 9.8682857026 5.6974573989 15 0 0 0
441 1 1 0.42 9.8682856834 4.2730930581 15 0 0 0
442 1 2 -0.42 7.401214287499999 5.6974573989 15 0 0 0
443 1 1 0.42 7.401214268299997 4.2730930581 15 0 0 0
444 1 2 -0.42 4.934142858599999 5.6974573989 15 0 0 0
445 1 1 0.42 4.934142853199995 4.2730930581 15 0 0 0
446 1 2 -0.42 2.4670714435999996 5.6974573989 15 0 0 0
447 1 1 0.42 2.4670714381999987 4.2730930581 15 0 0 0
448 1 2 -0.42 2.8500000412639932e-08 5.6974573989 15 0 0 0
449 1 1 0.42 -1.2335359112999722 6.4096395812 15 1 0 0
450 1 2 -0.42 -3.700607327899998 7.834003933899999 15 1 0 0
451 1 1 0.42 134.4553923604 6.4096395812 15 0 0 0
452 1 2 -0.42 131.9883209437999 7.834003933899999 15 0 0 0
453 1 1 0.42 131.9883209315 6.4096395812 15 0 0 0
454 1 2 -0.42 129.5212495286999 7.834003933899999 15 0 0 0
455 1 1 0.42 129.5212495165 6.4096395812 15 0 0 0
456 1 2 -0.42 127.05417809979998 7.834003933899999 15 0 0 0
457 1 1 0.42 127.05417810139998 6.4096395812 15 0 0 0
458 1 2 -0.42 124.58710668480002 7.834003933899999 15 0 0 0
459 1 1 0.42 124.58710667249998 6.4096395812 15 0 0 0
460 1 2 -0.42 122.1200352697 7.834003933899999 15 0 0 0
461 1 1 0.42 122.1200352574 6.4096395812 15 0 0 0
462 1 2 -0.42 119.6529638408 7.834003933899999 15 0 0 0
463 1 1 0.42 119.65296384229991 6.4096395812 15 0 0 0
464 1 2 -0.42 117.1858924257 7.834003933899999 15 0 0 0
465 1 1 0.42 117.18589242719992 6.4096395812 15 0 0 0
466 1 2 -0.42 114.7188210106 7.834003933899999 15 0 0 0
467 1 1 0.42 114.7188209983 6.4096395812 15 0 0 0
468 1 2 -0.42 112.2517495955 7.834003933899999 15 0 0 0
469 1 1 0.42 112.25174958319991 6.4096395812 15 0 0 0
470 1 2 -0.42 109.7846781666 7.834003933899999 15 0 0 0
471 1 1 0.42 109.7846781682 6.4096395812 15 0 0 0
472 1 2 -0.42 107.3176067516 7.834003933899999 15 0 0 0
473 1 1 0.42 107.3176067393 6.4096395812 15 0 0 0
474 1 2 -0.42 104.8505353365 7.834003933899999 15 0 0 0
475 1 1 0.42 104.8505353242 6.4096395812 15 0 0 0
476 1 2 -0.42 102.38346390760002 7.834003933899999 15 0 0 0
477 1 1 0.42 102.3834639091 6.4096395812 15 0 0 0
478 1 2 -0.42 99.9163924925 7.834003933899999 15 0 0 0
479 1 1 0.42 99.916392494 6.4096395812 15 0 0 0
480 1 2 -0.42 97.4493210774 7.834003933899999 15 0 0 0
481 1 1 0.42 97.4493210651 6.4096395812 15 0 0 0
482 1 2 -0.42 94.9822496623 7.834003933899999 15 0 0 0
483 1 1 0.42 94.98224965 6.4096395812 15 0 0 0
484 1 2 -0.42 92.5151782334 7.834003933899999 15 0 0 0
485 1 1 0.42 92.5151782349 6.4096395812 15 0 0 0
486 1 2 -0.42 90.0481068183 7.834003933899999 15 0 0 0
487 1 1 0.42 90.0481068199 6.4096395812 15 0 0 0
488 1 2 -0.42 87.58103540330002 7.834003933899999 15 0 0 0
489 1 1 0.42 87.58103539099999 6.4096395812 15 0 0 0
490 1 2 -0.42 85.11396398820001 7.834003933899999 15 0 0 0
491 1 1 0.42 85.1139639759 6.4096395812 15 0 0 0
492 1 2 -0.42 82.6468925593 7.834003933899999 15 0 0 0
493 1 1 0.42 82.6468925608 6.4096395812 15 0 0 0
494 1 2 -0.42 80.17982114420002 7.834003933899999 15 0 0 0
495 1 1 0.42 80.1798211319 6.4096395812 15 0 0 0
496 1 2 -0.42 77.71274972910003 7.834003933899999 15 0 0 0
497 1 1 0.42 77.7127497168 6.4096395812 15 0 0 0
498 1 2 -0.42 75.24567830020001 7.834003933899999 15 0 0 0
499 1 1 0.42 75.2456783017 6.4096395812 15 0 0 0
500 1 2 -0.42 72.77860688510002 7.834003933899999 15 0 0 0
501 1 1 0.42 72.7786068866 6.4096395812 15 0 0 0
502 1 2 -0.42 70.31153547000002 7.834003933899999 15 0 0 0
503 1 1 0.42 70.3115354577 6.4096395812 15 0 0 0
504 1 2 -0.42 67.844464055 7.834003933899999 15 0 0 0
505 1 1 0.42 67.84446404269997 6.4096395812 15 0 0 0
506 1 2 -0.42 65.3773926261 7.834003933899999 15 0 0 0
507 1 1 0.42 65.3773926276 6.4096395812 15 0 0 0
508 1 2 -0.42 62.910321211 7.834003933899999 15 0 0 0
509 1 1 0.42 62.9103211987 6.4096395812 15 0 0 0
510 1 2 -0.42 60.443249795899995 7.834003933899999 15 0 0 0
511 1 1 0.42 60.4432497836 6.4096395812 15 0 0 0
512 1 2 -0.42 57.976178366999996 7.834003933899999 15 0 0 0
513 1 1 0.42 57.9761783685 6.4096395812 15 0 0 0
514 1 2 -0.42 55.5091069519 7.834003933899999 15 0 0 0
515 1 1 0.42 55.5091069534 6.4096395812 15 0 0 0
516 1 2 -0.42 53.04203553679996 7.834003933899999 15 0 0 0
517 1 1 0.42 53.0420355245 6.4096395812 15 0 0 0
518 1 2 -0.42 50.574964121699956 7.834003933899999 15 0 0 0
519 1 1 0.42 50.5749641094 6.4096395812 15 0 0 0
520 1 2 -0.42 48.1078926928 7.834003933899999 15 0 0 0
521 1 1 0.42 48.10789269440001 6.4096395812 15 0 0 0
522 1 2 -0.42 45.64082127779997 7.834003933899999 15 0 0 0
523 1 1 0.42 45.64082127930002 6.4096395812 15 0 0 0
524 1 2 -0.42 43.173749862699985 7.834003933899999 15 0 0 0
525 1 1 0.42 43.1737498504 6.4096395812 15 0 0 0
526 1 2 -0.42 40.7066784476 7.834003933899999 15 0 0 0
527 1 1 0.42 40.706678435300006 6.4096395812 15 0 0 0
528 1 2 -0.42 38.23960701869997 7.834003933899999 15 0 0 0
529 1 1 0.42 38.23960702020002 6.4096395812 15 0 0 0
530 1 2 -0.42 35.77253560359999 7.834003933899999 15 0 0 0
531 1 1 0.42 35.7725355913 6.4096395812 15 0 0 0
532 1 2 -0.42 33.3054641885 7.834003933899999 15 0 0 0
533 1 1 0.42 33.30546417620001 6.4096395812 15 0 0 0
534 1 2 -0.42 30.8383927596 7.834003933899999 15 0 0 0
535 1 1 0.42 30.8383927612 6.4096395812 15 0 0 0
536 1 2 -0.42 28.371321344600002 7.834003933899999 15 0 0 0
537 1 1 0.42 28.3713213461 6.4096395812 15 0 0 0
538 1 2 -0.42 25.9042499295 7.834003933899999 15 0 0 0
539 1 1 0.42 25.9042499172 6.4096395812 15 0 0 0
540 1 2 -0.42 23.437178514400003 7.834003933899999 15 0 0 0
541 1 1 0.42 23.43717850209999 6.4096395812 15 0 0 0
542 1 2 -0.42 20.9701070855 7.834003933899999 15 0 0 0
543 1 1 0.42 20.970107087 6.4096395812 15 0 0 0
544 1 2 -0.42 18.5030356704 7.834003933899999 15 0 0 0
545 1 1 0.42 18.5030356581 6.4096395812 15 0 0 0
546 1 2 -0.42 16.035964255300005 7.834003933899999 15 0 0 0
547 1 1 0.42 16.03596424299999 6.4096395812 15 0 0 0
548 1 2 -0.42 13.56889282639999 7.834003933899999 15 0 0 0
549 1 1 0.42 13.568892827899994 6.4096395812 15 0 0 0
550 1 2 -0.42 11.101821411299989 7.834003933899999 15 0 0 0
551 1 1 0.42 11.1018214129 6.4096395812 15 0 0 0
552 1 2 -0.42 8.63474999629999 7.834003933899999 15 0 0 0
553 1 1 0.42 8.634749984 6.4096395812 15 0 0 0
554 1 2 -0.42 6.1676785812 7.834003933899999 15 0 0 0
555 1 1 0.42 6.167678568900001 6.4096395812 15 0 0 0
556 1 2 -0.42 3.7006071523000004 7.834003933899999 15 0 0 0
557 1 1 0.42 3.7006071537999996 6.4096395812 15 0 0 0
558 1 2 -0.42 1.2335357371999958 7.834003933899999 15 0 0 0
559 1 1 0.42 1.2335357387 6.4096395812 15 0 0 0
560 1 2 -0.42 -1.2335356779000028 7.834003933899999 15 0 0 0
561 1 1 0.42 -2.467071610699978 8.5461861043 15 1 0 0
562 1 2 -0.42 -4.934143027299999 9.970550457 15 1 0 0
563 1 1 0.42 133.221856661 8.5461861043 15 0 0 0
564 1 2 -0.42 130.7547852444 9.970550457 15 0 0 0
565 1 1 0.42 130.7547852321 8.5461861043 15 0 0 0
566 1 2 -0.42 128.2877138293 9.970550457 15 0 0 0