LAMMPS data file via write_data, version 7 Jan 2022, timestep = 487926

12322 atoms
3 atom types

0.32405806929582415 137.8319416175045 xlo xhi
0.2806425209247368 119.36596315447524 ylo yhi
0 100 zlo zhi
-68.75394132342824 0 0 xy xz yz

Masses

1 10.811
2 14.0067
3 12.0107

Atoms # full

1 1 1 0.42 -64.723670386805 117.2262879549774 11.19560068766253 1 -1 0
2 1 2 -0.42 -67.18484825478296 118.64728165814932 10.866801338495062 1 -1 0
3 1 1 0.42 70.31515108401639 117.21634951662779 11.024981374635804 0 -1 0
4 1 2 -0.42 67.83305197498743 118.64719366545981 10.864980855523303 0 -1 0
5 1 1 0.42 67.84081543048801 117.21634051159295 11.02427538198971 0 -1 0
6 1 2 -0.42 65.36914871610759 118.65923411535925 11.23000894336897 0 -1 0
7 1 1 0.42 65.3716060739946 117.22607732941177 11.192713650153747 0 -1 0
8 1 2 -0.42 62.982577296003456 118.6461213357465 11.930154037825202 0 -1 0
9 1 1 0.42 62.935547803540395 117.25020227124064 11.622021738499198 0 -1 0
10 1 2 -0.42 60.676826741473526 118.56621971572804 12.835773239820526 0 -1 0
11 1 1 0.42 60.56334899882027 117.23765393978167 12.314860356070058 0 -1 0
12 1 2 -0.42 58.406069141758095 118.4231057340581 13.810901676974558 0 -1 0
13 1 1 0.42 58.25121130987401 117.14347948547848 13.182502100147476 0 -1 0
14 1 2 -0.42 56.11252674622506 118.26586959319795 14.73859203857919 0 -1 0
15 1 1 0.42 55.963253668530186 116.98262937514404 14.111869840507332 0 -1 0
16 1 2 -0.42 53.74996971565454 118.15795029306062 15.497382287670339 0 -1 0
17 1 1 0.42 53.646263188205324 116.82163873034303 14.9797629126984 0 -1 0
18 1 2 -0.42 51.31636732702623 118.11708364914648 16.007204725672167 0 -1 0
19 1 1 0.42 51.26352323679482 116.72117163743982 15.670979559170076 0 -1 0
20 1 2 -0.42 48.84449073718746 118.11212039061249 16.29051299358173 0 -1 0
21 1 1 0.42 48.82035368720039 116.68585210541139 16.123519464327252 0 -1 0
22 1 2 -0.42 46.36036521053558 118.11568651039238 16.434542905301424 0 -1 0
23 1 1 0.42 46.34685759706879 116.68155249622733 16.37249049697696 0 -1 0
24 1 2 -0.42 43.87333508546872 118.11928884162678 16.51315466229704 0 -1 0
25 1 1 0.42 43.863686979576016 116.6842301389796 16.49942748575301 0 -1 0
26 1 2 -0.42 41.385621300981526 118.12184086680902 16.565311477035163 0 -1 0
27 1 1 0.42 41.3779017899423 116.68688303275972 16.56680060895231 0 -1 0
28 1 2 -0.42 38.89769291250811 118.12339445403892 16.608194467764413 0 -1 0
29 1 1 0.42 38.89127609346575 116.68848805006348 16.61002222695212 0 -1 0
30 1 2 -0.42 36.40960542877674 118.12405091325381 16.647709709500567 0 -1 0
31 1 1 0.42 36.40417023751354 116.68913236258304 16.645025130509808 0 -1 0
32 1 2 -0.42 33.92133304601028 118.12386370941589 16.68484389987995 0 -1 0
33 1 1 0.42 33.916670362010755 116.68890051661883 16.677438782037445 0 -1 0
34 1 2 -0.42 31.432843661771937 118.1228937587035 16.718897258071152 0 -1 0
35 1 1 0.42 31.42879411926646 116.68785406849472 16.708116584058775 0 -1 0
36 1 2 -0.42 28.944132631122322 118.12120621806014 16.748999378906834 0 -1 0
37 1 1 0.42 28.94056538027145 116.68605223219201 16.736252934050647 0 -1 0
38 1 2 -0.42 26.455226186675173 118.11887644496251 16.77465805005468 0 -1 0
39 1 1 0.42 26.452029509945973 116.68357285828118 16.7608853270781 0 -1 0
40 1 2 -0.42 23.96617717821905 118.1159914159254 16.79582913184369 0 -1 0
41 1 1 0.42 23.963261570241503 116.68050882602499 16.781462519050052 0 -1 0
42 1 2 -0.42 21.47705468729927 118.1126584349042 16.81279843722769 0 -1 0
43 1 1 0.42 21.474357538097834 116.67697467608392 16.797919932877495 0 -1 0
44 1 2 -0.42 18.98793437710889 118.10900981148363 16.826033993106222 0 -1 0
45 1 1 0.42 18.985423781709006 116.67311006226872 16.810556060017433 0 -1 0
46 1 2 -0.42 16.498889031495736 118.10520462611294 16.836073598828452 0 -1 0
47 1 1 0.42 16.496563957322543 116.66908232750197 16.81987347146454 0 -1 0
48 1 2 -0.42 14.009980255815936 118.10142466881716 16.843458342197405 0 -1 0
49 1 1 0.42 14.007867360008655 116.66508268114544 16.82645368334011 0 -1 0
50 1 2 -0.42 11.521251197648889 118.09786565450358 16.848699227174986 0 -1 0
51 1 1 0.42 11.519398335228866 116.66131735524984 16.830878547422852 0 -1 0
52 1 2 -0.42 9.032721214373815 118.09472422349647 16.852259764089485 0 -1 0
53 1 1 0.42 9.031188462264094 116.65799392131882 16.833685966985772 0 -1 0
54 1 2 -0.42 6.5443832499344365 118.09218277298896 16.854542071624486 0 -1 0
55 1 1 0.42 6.54323248463972 116.65530518915672 16.835343188670297 0 -1 0
56 1 2 -0.42 4.056204611195635 118.09039417999637 16.85587100733815 0 -1 0
57 1 1 0.42 4.055489139317141 116.65341289853602 16.836225935509866 0 -1 0
58 1 2 -0.42 1.568131212878969 118.08946856457227 16.85647668001637 0 -1 0
59 1 1 0.42 1.567886991974481 116.65243360383046 16.83659907167321 0 -1 0
60 1 2 -0.42 -0.9199052048318409 118.08946365487594 16.856479007191492 0 -1 0
61 1 1 0.42 -0.9196654186804504 116.65242841536869 16.836600210150603 0 -1 0
62 1 2 -0.42 -3.407977890066441 118.09037974310314 16.85587859907875 0 -1 0
63 1 1 0.42 -3.407266607309679 116.65339764230643 16.836230048772425 0 -1 0
64 1 2 -0.42 -5.8961551992072705 118.09215966044835 16.85455671140287 0 -1 0
65 1 1 0.42 -5.895008171480486 116.65528076602648 16.83535232048218 0 -1 0
66 1 2 -0.42 -8.384491397396916 118.09469377329418 16.85228428172228 0 -1 0
67 1 1 0.42 -8.382961799028386 116.65796174640647 16.8337033738747 0 -1 0
68 1 2 -0.42 -10.873019416293788 118.0978295765305 16.848737329900064 0 -1 0
69 1 1 0.42 -10.871169088369598 116.66127923580942 16.83090851962527 0 -1 0
70 1 2 -0.42 -13.361746576518113 118.10138490176104 16.843514447414584 0 -1 0
71 1 1 0.42 -13.359635665805166 116.66504066402268 16.826501351109627 0 -1 0
72 1 2 -0.42 -15.850653776950296 118.10516318304806 16.8361526927534 0 -1 0
73 1 1 0.42 -15.848330307298735 116.6690385343264 16.819944585541343 0 -1 0
74 1 2 -0.42 -18.33969808645767 118.10896863802489 16.826141492102327 0 -1 0
75 1 1 0.42 -18.337188962446838 116.6730665400362 16.810656663455163 0 -1 0
76 1 2 -0.42 -20.828818054444042 118.1126192963516 16.812939959302074 0 -1 0
77 1 1 0.42 -20.82612254243701 116.6769332790522 16.798055767687423 0 -1 0
78 1 2 -0.42 -23.317940973099716 118.11595583550721 16.796010017776677 0 -1 0
79 1 1 0.42 -23.315027482098195 116.68047115781935 16.78163799337331 0 -1 0
80 1 2 -0.42 -25.80699117072007 118.11884568434654 16.77488245574024 0 -1 0
81 1 1 0.42 -25.803797389766864 116.68354025375136 16.761101996405696 0 -1 0
82 1 2 -0.42 -28.29589945520607 118.12118132511767 16.749268884150982 0 -1 0
83 1 1 0.42 -28.292336124938984 116.68602581585354 16.736507854865717 0 -1 0
84 1 2 -0.42 -30.78461277393429 118.12287561073497 16.71920931395831 0 -1 0
85 1 1 0.42 -30.780568391008902 116.68783476218915 16.708401657378875 0 -1 0
86 1 2 -0.42 -33.27310458404878 118.1238531230022 16.68519119870698 0 -1 0
87 1 1 0.42 -33.26844850566607 116.68888913799131 16.677743413065233 0 -1 0
88 1 2 -0.42 -35.76137924537173 118.12404856844498 16.64808267888558 0 -1 0
89 1 1 0.42 -35.75595251847692 116.68912949244827 16.645345824906787 0 -1 0
90 1 2 -0.42 -38.24946865091611 118.12340107301732 16.60859082885886 0 -1 0
91 1 1 0.42 -38.243062831228016 116.68849458176493 16.610384961576926 0 -1 0
92 1 2 -0.42 -40.737399018562236 118.12185706404928 16.56575864259858 0 -1 0
93 1 1 0.42 -40.72969483133028 116.68690001040675 16.567302805148277 0 -1 0
94 1 2 -0.42 -43.22511642242615 118.11931621343417 16.513755973066424 0 -1 0
95 1 1 0.42 -43.215493480510155 116.68425715958705 16.50031248579747 0 -1 0
96 1 2 -0.42 -45.71215997571248 118.11572344835686 16.435560738841932 0 -1 0
97 1 1 0.42 -45.698712496928 116.68156208033791 16.37424839903848 0 -1 0
98 1 2 -0.42 -48.19634220730748 118.11213764859966 16.292502648297965 0 -1 0
99 1 1 0.42 -48.172380770383796 116.6857089590715 16.126924959309427 0 -1 0
100 1 2 -0.42 -50.6684411086087 118.11691428156512 16.0110780324933 0 -1 0
101 1 1 0.42 -50.61601715743423 116.72052503853925 15.676787658085098 0 -1 0
102 1 2 -0.42 -53.10261398233659 118.15722641479798 15.503832873393847 0 -1 0
103 1 1 0.42 -52.9994666708209 116.82024907170054 14.987812801624264 0 -1 0
104 1 2 -0.42 -55.46596729031679 118.2644413381861 14.747296088239233 0 -1 0
105 1 1 0.42 -55.31699696948057 116.98086180963281 14.121162491375516 0 -1 0
106 1 2 -0.42 -57.76001886070783 118.42147222301541 13.820688101945603 0 -1 0
107 1 1 0.42 -57.60496863197533 117.142098805909 13.191769351303408 0 -1 0
108 1 2 -0.42 -60.030711911083465 118.56503694565555 12.84544447305084 0 -1 0
109 1 1 0.42 -59.91663450642917 117.2371347662378 12.322908234607839 0 -1 0
110 1 2 -0.42 -62.33583606427649 118.64568170327681 11.938491805757474 0 -1 0
111 1 1 0.42 -62.28814366422959 117.25036324501274 11.627777442757914 0 -1 0
112 1 2 -0.42 -64.72149245188783 118.65931504818714 11.235520074693103 0 -1 0
113 1 1 0.42 2.80397922667843 0.28403444755829854 11.029185921315678 1 0 0
114 1 2 -0.42 0.3241791421389228 1.7182109930051124 10.866861593576058 1 0 0
115 1 1 0.42 0.3241538368589269 0.28069800517352533 10.78450844884789 1 0 0
116 1 2 -0.42 135.36138413809437 1.7069441236942806 11.20783579420741 0 0 0
117 1 1 0.42 135.35173288269272 0.2840169920834887 11.024408552075439 0 0 0
118 1 2 -0.42 133.02195151738167 1.644284732950198 12.077791056741853 0 0 0
119 1 1 0.42 64.19959031636584 119.35466983175938 11.692074564967486 0 -1 0
120 1 2 -0.42 130.7783942343113 1.517607424915298 13.152705602867238 0 0 0
121 1 1 0.42 61.89365293386463 119.28148182531882 12.617281426015445 0 -1 0
122 1 2 -0.42 128.53092727810113 1.3661309169583706 14.206179623222717 0 0 0
123 1 1 0.42 59.627889014015174 119.14664765416647 13.625859948814986 0 -1 0
124 1 2 -0.42 126.21483236133231 1.2426491588405768 15.107833340362415 0 0 0
125 1 1 0.42 57.34264033186259 118.99142509721173 14.591026852209666 0 -1 0
126 1 2 -0.42 123.80945581145397 1.1833741068543393 15.753655351005069 0 0 0
127 1 1 0.42 54.98982735821192 118.87828393535641 15.393012062751431 0 -1 0
128 1 2 -0.42 121.34515272889517 1.1722004089138456 16.127119329029334 0 0 0
129 1 1 0.42 52.56182938303083 118.83273003121408 15.940824277654695 0 -1 0
130 1 2 -0.42 118.86031882626334 1.1757595419028706 16.316375117828663 0 0 0
131 1 1 0.42 50.09106212636889 118.82652119182826 16.24675651914215 0 -1 0
132 1 2 -0.42 116.37120929268531 1.1804811924211804 16.418769016463827 0 0 0
133 1 1 0.42 47.60664605375815 118.83018343976968 16.403570410809337 0 -1 0
134 1 2 -0.42 113.88159371998901 1.184283585970345 16.48697880701152 0 0 0
135 1 1 0.42 45.11912068203265 118.83422584431169 16.488988054441553 0 -1 0
136 1 2 -0.42 111.39215796152502 1.187090439249442 16.5430797006906 0 0 0
137 1 1 0.42 42.63102865445276 118.83719700033784 16.54593824906724 0 -1 0
138 1 2 -0.42 108.9029262894612 1.1889819265627715 16.594331675257035 0 0 0
139 1 1 0.42 40.14281527251758 118.83915602513704 16.59284917703137 0 -1 0
140 1 2 -0.42 106.41380093226562 1.1900092630370442 16.642070340407784 0 0 0
141 1 1 0.42 37.654519421479414 118.84019863842965 16.636011572526073 0 -1 0
142 1 2 -0.42 103.92467822849086 1.1902362442598733 16.68576286565716 0 0 0
143 1 1 0.42 35.16608746930782 118.84039841924424 16.676489481043063 0 -1 0
144 1 2 -0.42 101.43548986375906 1.189728199361431 16.724689244496076 0 0 0
145 1 1 0.42 32.67747163209758 118.83982078666591 16.71361978485663 0 -1 0
146 1 2 -0.42 98.94620635453408 1.1885523978056574 16.75848484446277 0 0 0
147 1 1 0.42 30.188651457381862 118.83853872920707 16.746563797329756 0 -1 0
148 1 2 -0.42 96.45683195849753 1.1867768439459374 16.787189796166338 0 0 0
149 1 1 0.42 27.699643131775975 118.83662716061254 16.77485662339916 0 -1 0
150 1 2 -0.42 93.96739465525627 1.184478046435674 16.811126920574683 0 0 0
151 1 1 0.42 25.21049201016301 118.83416908464136 16.798470563298416 0 -1 0
152 1 2 -0.42 91.47793780222139 1.1817469251120136 16.830762338348553 0 0 0
153 1 1 0.42 22.721264141723047 118.8312607326118 16.817695362242482 0 -1 0
154 1 2 -0.42 88.98851240337326 1.1786939284099192 16.846606108792265 0 0 0
155 1 1 0.42 20.232035810357733 118.82801788174342 16.83299239030253 0 -1 0
156 1 2 -0.42 86.49917031950541 1.1754502733142829 16.85915956383469 0 0 0
157 1 1 0.42 17.742884356459488 118.82457778448328 16.844885928351275 0 -1 0
158 1 2 -0.42 84.00995766271629 1.1721657920009707 16.868895264499876 0 0 0
159 1 1 0.42 15.253879030555288 118.82109749128225 16.853901135908824 0 -1 0
160 1 2 -0.42 81.52090878963874 1.1690028701854542 16.876252152865405 0 0 0
161 1 1 0.42 12.765072766737523 118.81774766446733 16.860535295572486 0 -1 0
162 1 2 -0.42 79.03204137972477 1.1661273003097012 16.88163298392132 0 0 0
163 1 1 0.42 10.276495308122398 118.81470298030881 16.865244870034196 0 -1 0
164 1 2 -0.42 76.54335339473026 1.1636970258203574 16.885397498516504 0 0 0
165 1 1 0.42 7.788148897143753 118.81213014028408 16.868435542365738 0 -1 0
166 1 2 -0.42 74.05482247279592 1.16185031646625 16.887850136958683 0 0 0
167 1 1 0.42 5.300007331466553 118.81017524585822 16.870449241873892 0 -1 0
168 1 2 -0.42 71.56640799232018 1.1606948607924061 16.88922449299317 0 0 0
169 1 1 0.42 2.8120187974392583 118.80895215115379 16.87154788482908 0 -1 0
170 1 2 -0.42 69.07805558235742 1.1602990836682245 16.889668237488962 0 0 0
171 1 1 0.42 0.32411217400146203 118.80853321681609 16.87189703143831 0 -1 0
172 1 2 -0.42 66.58970348386082 1.1606865882053055 16.889232255427572 0 0 0
173 1 1 0.42 -2.1637940381079788 118.8089434052119 16.871553748636952 0 -1 0
174 1 2 -0.42 64.10128990054488 1.1618342379268805 16.887866675721074 0 0 0
175 1 1 0.42 -4.651781390387756 118.81015824717959 16.870462103725696 0 -1 0
176 1 2 -0.42 61.61276035468503 1.1636740374952934 16.885424765032145 0 0 0
177 1 1 0.42 -7.139921153641564 118.81210583593257 16.868457584727793 0 -1 0
178 1 2 -0.42 59.12407406250711 1.1660986567972649 16.881673733180264 0 0 0
179 1 1 0.42 -9.628265368840822 118.81467269559086 16.865279176409217 0 -1 0
180 1 2 -0.42 56.63520846620428 1.168970086390292 16.876309785203357 0 0 0
181 1 1 0.42 -12.11684051251961 118.81771299834864 16.86058568322573 0 -1 0
182 1 2 -0.42 54.14616132352234 1.1721305285273544 16.868973682599922 0 0 0
183 1 1 0.42 -14.605644627042796 118.82106019389387 16.85397200953006 0 -1 0
184 1 2 -0.42 51.656950127859844 1.1754142200541573 16.85926307754859 0 0 0
185 1 1 0.42 -17.094648228002402 118.82453963307564 16.844982173133634 0 -1 0
186 1 2 -0.42 49.16760908921835 1.1786587004886875 16.846739395983164 0 0 0
187 1 1 0.42 -19.583798585016 118.82798057015256 16.833119275223137 0 -1 0
188 1 2 -0.42 46.67818422802259 1.1817139864947257 16.83093042519089 0 0 0
189 1 1 0.42 -22.073026574815167 118.83122579254896 16.817858357005996 0 -1 0
190 1 2 -0.42 44.188727375190815 1.1844486658049211 16.81133508170082 0 0 0
191 1 1 0.42 -24.562254900667682 118.83413784185727 16.79867490487336 0 -1 0
192 1 2 -0.42 41.69928957264124 1.1867520932795699 16.787443211955537 0 0 0
193 1 1 0.42 -27.05140722686576 118.83660074220407 16.77510645101507 0 -1 0
194 1 2 -0.42 39.209914284152234 1.1885331767044074 16.758787832941433 0 0 0
195 1 1 0.42 -29.54041736333395 118.83851809336896 16.74686079168973 0 -1 0
196 1 2 -0.42 36.72062968262913 1.1897153061132235 16.725043991219895 0 0 0
197 1 1 0.42 -32.02923969737772 118.8398068085426 16.713961625509832 0 -1 0
198 1 2 -0.42 34.231440303171524 1.190230420708126 16.686167915334714 0 0 0
199 1 1 0.42 -34.51785772929082 118.84039190487485 16.676869165846313 0 -1 0
200 1 2 -0.42 31.742317051130435 1.1900112882773477 16.642519849983124 0 0 0
201 1 1 0.42 -37.00629152313861 118.84020041328775 16.63641988635876 0 -1 0
202 1 2 -0.42 29.253191985823197 1.188992502453045 16.594817672939698 0 0 0
203 1 1 0.42 -39.49458873790188 118.8391667658556 16.593284216387513 0 -1 0
204 1 2 -0.42 26.76396172574507 1.1871103056308472 16.543601989911718 0 0 0
205 1 1 0.42 -41.982803125216776 118.83721773057786 16.54642922353656 0 -1 0
206 1 2 -0.42 24.274527987853734 1.184313277822834 16.48757103336151 0 0 0
207 1 1 0.42 -44.47089784043673 118.83425767300359 16.489644407339 0 -1 0
208 1 2 -0.42 21.784912536208925 1.1805218759751321 16.419559340577038 0 0 0
209 1 1 0.42 -46.95843563320994 118.83022491791839 16.404678430008822 0 -1 0
210 1 2 -0.42 19.295787943009557 1.1758067161146546 16.317707310424957 0 0 0
211 1 1 0.42 -49.4429148528697 118.82653496701136 16.248917941321636 0 -1 0
212 1 2 -0.42 16.810863405381554 1.1722020784496814 16.129748198423854 0 0 0
213 1 1 0.42 -51.91392960725765 118.8325359183157 15.944990974158388 0 -1 0
214 1 2 -0.42 14.346192235958153 1.1830837776968797 15.758697390244404 0 0 0
215 1 1 0.42 -54.34255703409195 118.87749662249433 15.399901919921996 0 -1 0
216 1 2 -0.42 11.940009564712506 1.2417126264562188 15.115737949003982 0 0 0
217 1 1 0.42 -56.69617564962478 118.98997574974793 14.600123164663422 0 -1 0
218 1 2 -0.42 9.623028117880246 1.3646553664176462 14.21620185857658 0 0 0
219 1 1 0.42 -58.981903927501065 119.14507705953153 13.635992225867009 0 -1 0
220 1 2 -0.42 7.375130826040485 1.5161180975094886 13.163659223328414 0 0 0
221 1 1 0.42 -61.24756877666407 119.28039015219771 12.627251873138935 0 -1 0
222 1 2 -0.42 5.132001269534073 1.6432893651526388 12.088074099448376 0 0 0
223 1 1 0.42 -63.55279620488846 119.35426611408548 11.700422414621457 0 -1 0
224 1 2 -0.42 2.7939756172514283 1.7066430034440478 11.214444002495922 0 0 0
225 1 1 0.42 1.5669613382081158 2.4266140422280316 11.029206557896908 1 0 0
226 1 2 -0.42 -0.9184068553511909 3.8459087221394768 11.230672805878157 1 0 0
227 1 1 0.42 136.5889058437682 2.4268404211146892 11.02514245577117 0 0 0
228 1 2 -0.42 134.24541937611878 3.7643663586049865 12.076840363894567 0 0 0
229 1 1 0.42 134.20664130056272 2.3735376820587226 11.749299888158355 0 0 0
230 1 2 -0.42 132.06090380260582 3.612449721962108 13.279823780861182 0 0 0
231 1 1 0.42 131.96415090031067 2.2537653970978355 12.838370900208556 0 0 0
232 1 2 -0.42 129.85025232336986 3.4561193808707804 14.426713003789079 0 0 0
233 1 1 0.42 129.73836237967026 2.1018408522880065 13.957804236797394 0 0 0
234 1 2 -0.42 127.52215112481366 3.355270222214793 15.317374179268919 0 0 0
235 1 1 0.42 127.44314884332434 1.9709847145035804 14.929580555316699 0 0 0
236 1 2 -0.42 125.08890608739948 3.321524657318185 15.87308680518323 0 0 0
237 1 1 0.42 125.05199302096003 1.9019156673897613 15.641068434216553 0 0 0
238 1 2 -0.42 122.60875920361464 3.32062391805461 16.15500349177024 0 0 0
239 1 1 0.42 122.59254389247165 1.8863865278287162 16.058567114705415 0 0 0
240 1 2 -0.42 120.11816290647332 3.3255999045264404 16.297863185736 0 0 0
241 1 1 0.42 120.10818842960457 1.8892413194199622 16.27199140681231 0 0 0
242 1 2 -0.42 117.62642507360016 3.3303703204405295 16.38735551497463 0 0 0
243 1 1 0.42 117.61847741432967 1.8943395204973001 16.385719038010375 0 0 0
244 1 2 -0.42 115.13514261465795 3.3343055665583776 16.45867024470872 0 0 0
245 1 1 0.42 115.12826470318561 1.8986098456058051 16.460320335876705 0 0 0
246 1 2 -0.42 112.64442938793792 3.3373915882472684 16.5229527040065 0 0 0
247 1 1 0.42 112.63834102247125 1.9018930696631504 16.52117285650768 0 0 0
248 1 2 -0.42 110.15414132374804 3.3396328211555106 16.58242754401451 0 0 0
249 1 1 0.42 110.14873010222144 1.904243633406785 16.576568599695996 0 0 0
250 1 2 -0.42 107.66411162769819 3.341067878107363 16.636760946199217 0 0 0
251 1 1 0.42 107.65930573696171 1.9057216781802868 16.62806604897568 0 0 0
252 1 2 -0.42 105.17421475033541 3.341749167200255 16.685358080246438 0 0 0
253 1 1 0.42 105.16994601538597 1.906388866026012 16.675183795263987 0 0 0
254 1 2 -0.42 102.6843713206358 3.3417355024671327 16.727992314799902 0 0 0
255 1 1 0.42 102.68056428935398 1.9063160593960493 16.717235999974594 0 0 0
256 1 2 -0.42 100.19454095350424 3.3410852262058777 16.76482859780911 0 0 0
257 1 1 0.42 100.19111791247006 1.9055723221674388 16.753897420584064 0 0 0
258 1 2 -0.42 97.70471131879403 3.339859837943251 16.79627898076928 0 0 0
259 1 1 0.42 97.70159975120411 1.9042274501206202 16.785243418936048 0 0 0
260 1 2 -0.42 95.21489027762566 3.3381277473698416 16.822859468778887 0 0 0
261 1 1 0.42 95.21202985494 1.9023554731106889 16.81162112537688 0 0 0
262 1 2 -0.42 92.72509953691025 3.3359691466278685 16.845097400010395 0 0 0
263 1 1 0.42 92.72244647806082 1.9000410427578545 16.83350883683285 0 0 0
264 1 2 -0.42 90.23536952114736 3.33347899404585 16.863488677117562 0 0 0
265 1 1 0.42 90.23289898278443 1.8973833962462656 16.85141865723973 0 0 0
266 1 2 -0.42 87.74573422705544 3.33076831012586 16.878487798310818 0 0 0
267 1 1 0.42 87.74344075222014 1.8944984592747875 16.865847043178697 0 0 0
268 1 2 -0.42 85.25622603710747 3.327962793035652 16.890512780250916 0 0 0
269 1 1 0.42 85.25412232657573 1.8915177414270379 16.87725827956568 0 0 0
270 1 2 -0.42 82.76687061756162 3.3251988506821366 16.899952153178845 0 0 0
271 1 1 0.42 82.7649845868106 1.8885843579959825 16.886083217730057 0 0 0
272 1 2 -0.42 80.27768249269005 3.322617148831516 16.907167222915366 0 0 0
273 1 1 0.42 80.27605279436656 1.8858462485030854 16.89272022886709 0 0 0
274 1 2 -0.42 77.78866187758993 3.320354394389739 16.91248760443218 0 0 0
275 1 1 0.42 77.78733224669564 1.8834474518611517 16.897531615986015 0 0 0
276 1 2 -0.42 75.29979328852933 3.318534281524067 16.916201086214613 0 0 0
277 1 1 0.42 75.29880634619339 1.8815184495116242 16.900833932160058 0 0 0
278 1 2 -0.42 72.81104617943076 3.3172587054811253 16.918540397707044 0 0 0
279 1 1 0.42 72.81043747191639 1.8801668001127299 16.90288396613428 0 0 0
280 1 2 -0.42 70.32237755755929 3.3166002453795365 16.91966989210956 0 0 0
281 1 1 0.42 70.32217062280857 1.8794691411261917 16.903863723785577 0 0 0
282 1 2 -0.42 67.83373623374072 3.31659671593098 16.919674908074 0 0 0
283 1 1 0.42 67.83393935098832 1.8794654066140772 16.90386796862322 0 0 0
284 1 2 -0.42 65.34506814356293 3.3172483091693117 16.91855588227784 0 0 0
285 1 1 0.42 65.3456731934408 1.880155799250956 16.902897184947268 0 0 0
286 1 2 -0.42 62.85632204201913 3.3185175802537916 16.916228319355863 0 0 0
287 1 1 0.42 62.85730562441906 1.8815007753044422 16.900857541730275 0 0 0
288 1 2 -0.42 60.36745483189588 3.3203322785211222 16.91252862473988 0 0 0
289 1 1 0.42 60.36878149714386 1.88342404374544 16.897567865237864 0 0 0
290 1 2 -0.42 57.87843582754594 3.3225907723296797 16.907224704401155 0 0 0
291 1 1 0.42 57.880062996050974 1.8858183234723715 16.892772057016074 0 0 0
292 1 2 -0.42 55.38924938872711 3.3251695492063393 16.90002926808127 0 0 0
293 1 1 0.42 55.391133305381295 1.8885533233533212 16.886154104154876 0 0 0
294 1 2 -0.42 52.89989557737269 3.3279319940985097 16.890613077666256 0 0 0
295 1 1 0.42 52.90199750920319 1.891485099017452 16.877352121792196 0 0 0
296 1 2 -0.42 50.41038878712654 3.330737445605822 16.878615128198586 0 0 0
297 1 1 0.42 50.41268068651188 1.894465712224569 16.865968091149746 0 0 0
298 1 2 -0.42 47.92075459175645 3.3334494260547047 16.86364718036805 0 0 0
299 1 1 0.42 47.9232235876869 1.8973519706940274 16.85157150815173 0 0 0
300 1 2 -0.42 45.431025328818656 3.335942113950716 16.84529156281946 0 0 0
301 1 1 0.42 45.43367668557854 1.9000122320929194 16.83369845099026 0 0 0
302 1 2 -0.42 42.941235002077775 3.3381043390341745 16.823094199382393 0 0 0
303 1 1 0.42 42.94409336532705 1.9023304134830106 16.81185276213147 0 0 0
304 1 2 -0.42 40.45141409365755 3.339840990427914 16.79655960900848 0 0 0
305 1 1 0.42 40.45452305771265 1.9042071215972367 16.785522328446916 0 0 0
306 1 2 -0.42 37.9615844204678 3.341071748653501 16.765160635697793 0 0 0
307 1 1 0.42 37.96500416050144 1.9055575856909022 16.75422810523187 0 0 0
308 1 2 -0.42 35.471754006886236 3.3417281090804796 16.728380783025678 0 0 0
309 1 1 0.42 35.4755569377155 1.9063076974209243 16.71762095304449 0 0 0
310 1 2 -0.42 32.981910763572124 3.3417485370146767 16.685806274951034 0 0 0
311 1 1 0.42 32.986174579572555 1.906387661271337 16.67562196133628 0 0 0
312 1 2 -0.42 30.4920146326406 3.3410746688845747 16.637268817606525 0 0 0
313 1 1 0.42 30.496814824584348 1.905728402166047 16.628551971986283 0 0 0
314 1 2 -0.42 28.001986700199993 3.339647715639931 16.582990650846565 0 0 0
315 1 1 0.42 28.00739150044936 1.9042590928505836 16.577094686809737 0 0 0
316 1 2 -0.42 25.511701876676323 3.337415114506283 16.52356443930653 0 0 0
317 1 1 0.42 25.517782889796905 1.9019178741867857 16.521739765692125 0 0 0
318 1 2 -0.42 23.020993660570916 3.334338121441302 16.459334145375763 0 0 0
319 1 1 0.42 23.027862511230733 1.8986447969661564 16.460966567742336 0 0 0
320 1 2 -0.42 20.529717021931496 3.330411863959631 16.38812298120131 0 0 0
321 1 1 0.42 20.53765080514446 1.8943850434406495 16.386590136150662 0 0 0
322 1 2 -0.42 18.037980336121972 3.3256498438633337 16.298932388427794 0 0 0
323 1 1 0.42 18.047922543283335 1.889290619081288 16.273487074429422 0 0 0
324 1 2 -0.42 15.547349898810225 3.3206648799334633 16.15692872852302 0 0 0
325 1 1 0.42 15.563453730003355 1.8863688601865862 16.061526545077754 0 0 0
326 1 2 -0.42 13.06698167023438 3.32142147372733 15.877062790674252 0 0 0
327 1 1 0.42 13.103565846133778 1.901552591675695 15.64667216695865 0 0 0
328 1 2 -0.42 10.632969605128595 3.354633541971661 15.324632719836881 0 0 0
329 1 1 0.42 10.711509216188702 1.9699459896765001 14.93817849211729 0 0 0
330 1 2 -0.42 8.303610404744521 3.4547601988732892 14.437156809419943 0 0 0
331 1 1 0.42 8.415366895281954 2.1003263697911305 13.96852755729647 0 0 0
332 1 2 -0.42 6.092027812463279 3.610774831570601 13.292075240358606 0 0 0
333 1 1 0.42 6.189203148418967 2.252309093447703 12.849861253840686 0 0 0
334 1 2 -0.42 3.9081429044896954 3.7631140919879957 12.088032574588741 0 0 0
335 1 1 0.42 3.9475315568728986 2.372645283714225 11.759113461568665 0 0 0
336 1 2 -0.42 1.5662873627805103 3.8455200394350784 11.235533725309818 0 0 0
337 1 1 0.42 0.3241542460163388 4.560140730877936 11.195695668379814 1 0 0
338 1 2 -0.42 -2.1010870383361064 5.919502375807793 11.928392084053689 1 0 0
339 1 1 0.42 -2.105991018939658 4.511150134452317 11.691097701926813 1 0 0
340 1 2 -0.42 133.2326964258865 5.771051834489522 13.150194330210349 0 0 0
341 1 1 0.42 133.18852783662817 4.375809033592383 12.837077646550881 0 0 0
342 1 2 -0.42 131.09061107789492 5.60552604510153 14.425532857294302 0 0 0
343 1 1 0.42 131.02374643835773 4.211338416743533 14.08087086053734 0 0 0
344 1 2 -0.42 128.78878396169307 5.501805556399462 15.382556537720951 0 0 0
345 1 1 0.42 128.74263270186668 4.089653732536319 15.098845785394877 0 0 0
346 1 2 -0.42 126.3497922413378 5.471411622834436 15.912426726286105 0 0 0
347 1 1 0.42 126.33205314423218 4.040223079928214 15.755289439104494 0 0 0
348 1 2 -0.42 123.86432490928006 5.4712685972236885 16.148569663077126 0 0 0
349 1 1 0.42 123.85721324530004 4.034325354175857 16.09034784959836 0 0 0
350 1 2 -0.42 121.37179750953244 5.475804729390839 16.270200042453805 0 0 0
351 1 1 0.42 121.36670866798676 4.038813186887307 16.255166971281767 0 0 0
352 1 2 -0.42 118.87907911817811 5.480320920417795 16.357917696610468 0 0 0
353 1 1 0.42 118.87431793798287 4.043878560846405 16.353872725027536 0 0 0
354 1 2 -0.42 116.38702935065741 5.484280254763444 16.4353362274826 0 0 0
355 1 1 0.42 116.38240867553704 4.048234811406681 16.430656279224657 0 0 0
356 1 2 -0.42 113.89560438600377 5.487560013855535 16.50692454014129 0 0 0
357 1 1 0.42 113.89118148026469 4.051770492006948 16.499385577271525 0 0 0
358 1 2 -0.42 111.40462720581026 5.490122678285829 16.572492838865333 0 0 0
359 1 1 0.42 111.40047244395502 4.054483106325155 16.56289467605884 0 0 0
360 1 2 -0.42 108.9139464781386 5.4919671157147425 16.63140939357317 0 0 0
361 1 1 0.42 108.91009840362106 4.056393099682329 16.620936660576746 0 0 0
362 1 2 -0.42 106.42345653760803 5.493117246648155 16.68349592429549 0 0 0
363 1 1 0.42 106.41991683338925 4.0575459932383975 16.67292662820818 0 0 0
364 1 2 -0.42 103.93309050516758 5.4936090742990755 16.729014607594596 0 0 0
365 1 1 0.42 103.92983603525389 4.0579950068592465 16.718661321439313 0 0 0
366 1 2 -0.42 101.44280870305207 5.493487768691522 16.768475828558998 0 0 0
367 1 1 0.42 101.43980406340637 4.0577976788341745 16.7583407389825 0 0 0
368 1 2 -0.42 98.95259133631859 5.492805999687401 16.802471701417907 0 0 0
369 1 1 0.42 98.94979911447925 4.057014658531457 16.792410643126004 0 0 0
370 1 2 -0.42 96.46243366539252 5.491625196680662 16.831578133392938 0 0 0
371 1 1 0.42 96.45982112829964 4.055712881802099 16.82141211632623 0 0 0
372 1 2 -0.42 93.9723427821066 5.49001699674139 16.856315418291068 0 0 0
373 1 1 0.42 93.96988629149853 4.053968251542514 16.845887515038815 0 0 0
374 1 2 -0.42 91.48233437268682 5.488064874638522 16.877144451685393 0 0 0
375 1 1 0.42 91.48002199084158 4.0518682807021635 16.866339202185685 0 0 0
376 1 2 -0.42 88.99242912861654 5.485864693434587 16.894478370856117 0 0 0
377 1 1 0.42 88.99026187873359 4.049513177017428 16.883222006355304 0 0 0
378 1 2 -0.42 86.50264867334819 5.483523839785735 16.908696424776718 0 0 0
379 1 1 0.42 86.50064043095279 4.047015280136812 16.896950778001248 0 0 0
380 1 2 -0.42 84.01301137170391 5.481158495443533 16.92015332742391 0 0 0
381 1 1 0.42 84.01118739231774 4.044496350977026 16.907910070435587 0 0 0
382 1 2 -0.42 81.52352846485617 5.478889125003305 16.929181872302742 0 0 0
383 1 1 0.42 81.52192257991979 4.042082883244825 16.916459105178664 0 0 0
384 1 2 -0.42 79.03420105332604 5.476834478183246 16.93608923919527 0 0 0
385 1 1 0.42 79.03285177601656 4.0398997654232485 16.922929888522 0 0 0
386 1 2 -0.42 76.54501834467419 5.475104727719774 16.94114871527577 0 0 0
387 1 1 0.42 76.54396430701192 4.038062996778623 16.92761928347664 0 0 0
388 1 2 -0.42 74.0559574251785 5.473794490274985 16.94458899872468 0 0 0
389 1 1 0.42 74.05523271391814 4.0366722692668615 16.930777303841825 0 0 0
390 1 2 -0.42 71.56698459358053 5.47297650281689 16.946583230128557 0 0 0
391 1 1 0.42 71.56661458862767 4.0358042527899824 16.932594350096835 0 0 0
392 1 2 -0.42 69.07805808158129 5.472696613956425 16.947239639219656 0 0 0
393 1 1 0.42 69.07805634074396 4.035507284584036 16.933189963968022 0 0 0